# vtk DataFile Version 3.0
vtk output
ASCII
DATASET POLYDATA
POINTS 184 float
17.001 48.0006 56 82 56 56 55 17 56 
72 26 56 53.9734 17.0521 56 82.9982 52.0014 56 
80 37 56 82 41 56 20.0619 36.0004 56 
79 35 56 17.0011 47.037 56 52.9631 17.001 56 
80.9089 62 56 46.9986 82.9981 56 29 75 56 
48.999 82.9992 56 19 62 56 24 70 56 
76 30 56 42 82 56 19.002 39.0007 56 
82.9479 54.026 56 43 82 56 23.0607 69 56 
54 83 56 47.9986 82.9982 56 76 70 56 
23 32 56 37 20 56 79 34 56 
21 35 56 21.0791 34.0255 56 18 59 56 
82.9992 51.001 56 57.0351 18 56 77 32 56 
47 17.0024 56 38 19 56 27 73 56 
82 57 56 44 18 56 40 19 56 
80.9988 38.9994 56 17.0018 49.0004 56 82.9978 48.002 56 
43 18 56 56 18 56 68 77 56 
38.9991 19.0017 56 25 29 56 52.963 82.9985 56 
19.0781 38.026 56 42 18 56 32 23 56 
71 75 56 64.001 79.9383 56 81 40 56 
67 22 56 17.0024 53 56 57.9643 82 56 
78 33 56 17 45 56 27 27 56 
83 50.0006 56 32 77 56 45 83 56 
57.0351 82 56 41 82 56 36 79.9379 56 
61.974 19.0781 56 34 78.9079 56 19 40 56 
81 60 56 44 82 56 80.9986 61 56 
70 76 56 60 81 56 65 21 56 
23.0743 30.9641 56 56 82 56 21 66 56 
24 30 56 63.9996 20.0619 56 60.9994 19.0018 56 
63 20 56 17.0911 55 56 18 56 56 
76.9379 69 56 20 37 56 70 24 56 
23 68 56 18 42.0358 56 73 27 56 
19 60 56 19.0017 61.0009 56 33 78 56 
82 42.965 56 41 18 56 79.9383 35.999 56 
20.0616 64.0004 56 17.0008 50.001 56 80 63 56 
51.9994 17.001 56 28 26 56 33 22 56 
18 58 56 30 76 56 82 42.0358 56 
38 80.9089 56 49.9994 83 56 29 25 56 
35.9996 20.0616 56 66 79 56 30 24 56 
51.9981 82.9978 56 25 71 56 18 42.965 56 
34 21 56 48 17.001 56 35 79 56 
82 59 56 67 78 56 28 74 56 
82.9985 47.037 56 59 82 56 37 80 56 
54.9734 82.9219 56 69.0359 23.0743 56 35 21 56 
22 33 56 59 18 56 18 41 56 
82.999 49.001 56 72 74 56 20 63 56 
61.0006 80.9988 56 31 23.0607 56 79 65 56 
83 46 56 26 72 56 74 72 56 
57.9643 18 56 40 81 56 62 81 56 
17.0521 46.0265 56 17 54 56 82.9982 53.0014 56 
77 68 56 74 28 56 48.9994 17 56 
82 58 56 49.999 17.0008 56 63 80 56 
82.9219 45.0266 56 73 73 56 21 65 56 
22 67 56 17.001 52 56 78.9079 66 56 
65 79 56 75 71 56 82 44 56 
46 17 56 26 28 56 78 67 56 
45 17.0911 56 50.999 82.999 56 65.9745 21.0791 56 
18 57 56 68 23 56 17 51.0006 56 
79.9379 64 56 50.9996 17.0018 56 83 55 56 
81 38 56 75 29 56 69.0364 76.9272 56 
18 44 56 45.974 82.9479 56 60 19 56 
39 80.9985 56 31 76.9379 56 76.9272 30.9636 56 
71 25 56 
POINT_DATA 184
SCALARS scalars float
LOOKUP_TABLE default
0 0 0 0 0 0 0 0 0 
0 0 0 0 0 0 0 0 0 
0 0 0 0 0 0 0 0 0 
0 0 0 0 0 0 0 0 0 
0 0 0 0 0 0 0 0 0 
0 0 0 0 0 0 0 0 0 
0 0 0 0 0 0 0 0 0 
0 0 0 0 0 0 0 0 0 
0 0 0 0 0 0 0 0 0 
0 0 0 0 0 0 0 0 0 
0 0 0 0 0 0 0 0 0 
0 0 0 0 0 0 0 0 0 
0 0 0 0 0 0 0 0 0 
0 0 0 0 0 0 0 0 0 
0 0 0 0 0 0 0 0 0 
0 0 0 0 0 0 0 0 0 
0 0 0 0 0 0 0 0 0 
0 0 0 0 0 0 0 0 0 
0 0 0 0 0 0 0 0 0 
0 0 0 0 0 0 0 0 0 
0 0 0 0 
