# vtk DataFile Version 3.0
vtk output
ASCII
DATASET POLYDATA
POINTS 3558 float
42 40 28 48 40 28 41 41 28 
49 41 28 41 47 28 49 47 28 
42 48 28 48 48 28 42 38 29 
48 38 29 41 39 29 49 39 29 
40 40 29 50 40 29 39 41 29 
51 41 29 39 47 29 51 47 29 
40 48 29 50 48 29 41 49 29 
49 49 29 42 50 29 48 50 29 
42 36 30 48 36 30 41 37 30 
49 37 30 40 38 30 50 38 30 
39 39 30 51 39 30 38 40 30 
52 40 30 37 41 30 53 41 30 
37 47 30 53 47 30 38 48 30 
52 48 30 39 49 30 51 49 30 
40 50 30 50 50 30 41 51 30 
49 51 30 42 52 30 48 52 30 
42 35 31 48 35 31 40 36 31 
50 36 31 39 37 31 51 37 31 
38 38 31 52 38 31 37 39 31 
53 39 31 36 41 31 54 41 31 
36 47 31 54 47 31 37 49 31 
53 49 31 38 50 31 52 50 31 
39 51 31 51 51 31 40 52 31 
50 52 31 42 53 31 48 53 31 
42 34 32 48 34 32 40 35 32 
50 35 32 38 36 32 52 36 32 
37 37 32 53 37 32 36 39 32 
54 39 32 35 41 32 55 41 32 
35 47 32 55 47 32 36 49 32 
54 49 32 37 51 32 53 51 32 
38 52 32 52 52 32 40 53 32 
50 53 32 42 54 32 48 54 32 
41 34 33 49 34 33 39 35 33 
51 35 33 37 36 33 53 36 33 
36 38 33 54 38 33 35 40 33 
55 40 33 35 48 33 55 48 33 
36 50 33 54 50 33 37 52 33 
53 52 33 39 53 33 51 53 33 
41 54 33 49 54 33 42 33 34 
48 33 34 40 34 34 50 34 34 
38 35 34 52 35 34 36 37 34 
54 37 34 35 39 34 55 39 34 
34 41 34 56 41 34 34 47 34 
56 47 34 35 49 34 55 49 34 
36 51 34 54 51 34 38 53 34 
52 53 34 40 54 34 50 54 34 
42 55 34 48 55 34 41 33 35 
49 33 35 39 34 35 51 34 35 
37 35 35 53 35 35 36 36 35 
54 36 35 35 38 35 55 38 35 
34 40 35 56 40 35 34 48 35 
56 48 35 35 50 35 55 50 35 
36 52 35 54 52 35 37 53 35 
53 53 35 39 54 35 51 54 35 
41 55 35 49 55 35 42 32 36 
48 32 36 40 33 36 50 33 36 
38 34 36 52 34 36 35 37 36 
55 37 36 34 39 36 56 39 36 
33 41 36 57 41 36 33 47 36 
57 47 36 34 49 36 56 49 36 
35 51 36 55 51 36 38 54 36 
52 54 36 40 55 36 50 55 36 
42 56 36 48 56 36 41 32 37 
49 32 37 39 33 37 51 33 37 
37 34 37 53 34 37 36 35 37 
54 35 37 35 36 37 55 36 37 
34 38 37 56 38 37 33 40 37 
57 40 37 33 48 37 57 48 37 
34 50 37 56 50 37 35 52 37 
55 52 37 36 53 37 54 53 37 
37 54 37 53 54 37 39 55 37 
51 55 37 41 56 37 49 56 37 
41 32 43 49 32 43 39 33 43 
51 33 43 37 34 43 53 34 43 
36 35 43 54 35 43 35 36 43 
55 36 43 34 38 43 56 38 43 
33 40 43 57 40 43 33 48 43 
57 48 43 34 50 43 56 50 43 
35 52 43 55 52 43 36 53 43 
54 53 43 37 54 43 53 54 43 
39 55 43 51 55 43 41 56 43 
49 56 43 42 32 44 48 32 44 
40 33 44 50 33 44 38 34 44 
52 34 44 35 37 44 55 37 44 
34 39 44 56 39 44 33 41 44 
57 41 44 33 47 44 57 47 44 
34 49 44 56 49 44 35 51 44 
55 51 44 38 54 44 52 54 44 
40 55 44 50 55 44 42 56 44 
48 56 44 41 33 45 49 33 45 
39 34 45 51 34 45 37 35 45 
53 35 45 36 36 45 54 36 45 
35 38 45 55 38 45 34 40 45 
56 40 45 34 48 45 56 48 45 
35 50 45 55 50 45 36 52 45 
54 52 45 37 53 45 53 53 45 
39 54 45 51 54 45 41 55 45 
49 55 45 42 33 46 48 33 46 
40 34 46 50 34 46 38 35 46 
52 35 46 36 37 46 54 37 46 
35 39 46 55 39 46 34 41 46 
56 41 46 34 47 46 56 47 46 
35 49 46 55 49 46 36 51 46 
54 51 46 38 53 46 52 53 46 
40 54 46 50 54 46 42 55 46 
48 55 46 41 34 47 49 34 47 
39 35 47 51 35 47 37 36 47 
53 36 47 36 38 47 54 38 47 
35 40 47 55 40 47 35 48 47 
55 48 47 36 50 47 54 50 47 
37 52 47 53 52 47 39 53 47 
41 54 47 49 54 47 42 34 48 
48 34 48 40 35 48 50 35 48 
38 36 48 52 36 48 37 37 48 
53 37 48 36 39 48 54 39 48 
35 41 48 55 41 48 35 47 48 
55 47 48 36 49 48 54 49 48 
37 51 48 38 52 48 40 53 48 
42 54 48 56 53 47 57 54 47 
49 60 47 57 60 47 50 61 47 
56 61 47 42 35 49 48 35 49 
40 36 49 50 36 49 39 37 49 
51 37 49 38 38 49 52 38 49 
37 39 49 53 39 49 36 41 49 
54 41 49 36 47 49 54 47 49 
37 49 49 38 50 49 39 51 49 
54 50 48 40 52 49 56 51 48 
42 53 49 57 52 48 45 54 49 
58 53 48 46 55 48 59 54 48 
47 60 48 59 60 48 48 61 48 
58 61 48 49 62 48 57 62 48 
50 63 48 56 63 48 42 36 50 
48 36 50 41 37 50 49 37 50 
40 38 50 50 38 50 39 39 50 
51 39 50 38 40 50 52 40 50 
37 41 50 53 41 50 37 47 50 
53 47 50 38 48 50 39 49 50 
54 48 49 40 50 50 56 49 49 
41 51 50 57 50 49 42 52 50 
58 51 49 44 53 50 59 52 49 
60 53 49 61 54 49 45 60 49 
61 60 49 46 61 49 60 61 49 
47 62 49 59 62 49 48 63 49 
58 63 49 49 64 49 57 64 49 
50 65 49 56 65 49 42 38 51 
48 38 51 41 39 51 49 39 51 
40 40 51 50 40 51 39 41 51 
51 41 51 39 47 51 52 46 51 
40 48 51 41 49 51 56 48 50 
42 50 51 58 49 50 44 51 51 
59 50 50 60 51 50 61 52 50 
44 54 50 62 54 50 44 60 50 
62 60 50 45 62 50 61 62 50 
46 63 50 60 63 50 47 64 50 
59 64 50 48 65 50 58 65 50 
50 66 50 56 66 50 42 40 52 
48 40 52 41 41 52 49 41 52 
41 47 52 49 47 52 42 48 52 
56 47 51 45 49 52 58 48 51 
60 49 51 61 50 51 44 52 51 
62 52 51 43 54 51 63 54 51 
43 60 51 63 60 51 44 62 51 
62 62 51 45 64 51 61 64 51 
46 65 51 60 65 51 48 66 51 
58 66 51 50 67 51 56 67 51 
57 47 52 46 48 53 59 48 52 
61 49 52 44 51 52 62 51 52 
43 53 52 63 53 52 43 61 52 
63 61 52 44 63 52 62 63 52 
45 65 52 61 65 52 47 66 52 
59 66 52 49 67 52 57 67 52 
50 46 53 56 46 53 48 47 53 
58 47 53 60 48 53 44 50 53 
62 50 53 43 52 53 63 52 53 
42 54 53 64 54 53 42 60 53 
64 60 53 43 62 53 63 62 53 
44 64 53 62 64 53 46 66 53 
60 66 53 48 67 53 58 67 53 
50 68 53 56 68 53 49 46 54 
57 46 54 47 47 54 59 47 54 
45 48 54 61 48 54 44 49 54 
62 49 54 43 51 54 63 51 54 
42 53 54 64 53 54 42 61 54 
64 61 54 43 63 54 63 63 54 
44 65 54 62 65 54 45 66 54 
61 66 54 47 67 54 59 67 54 
49 68 54 57 68 54 50 45 55 
56 45 55 48 46 55 58 46 55 
46 47 55 60 47 55 43 50 55 
63 50 55 42 52 55 64 52 55 
41 54 55 65 54 55 41 60 55 
65 60 55 42 62 55 64 62 55 
43 64 55 63 64 55 46 67 55 
60 67 55 48 68 55 58 68 55 
50 69 55 56 69 55 49 45 56 
57 45 56 47 46 56 59 46 56 
45 47 56 61 47 56 44 48 56 
62 48 56 43 49 56 63 49 56 
42 51 56 64 51 56 41 53 56 
65 53 56 41 61 56 65 61 56 
42 63 56 64 63 56 43 65 56 
63 65 56 44 66 56 62 66 56 
45 67 56 61 67 56 47 68 56 
59 68 56 49 69 56 57 69 56 
49 45 62 57 45 62 47 46 62 
59 46 62 45 47 62 61 47 62 
44 48 62 62 48 62 43 49 62 
63 49 62 42 51 62 64 51 62 
41 53 62 65 53 62 41 61 62 
65 61 62 42 63 62 64 63 62 
43 65 62 63 65 62 44 66 62 
62 66 62 45 67 62 61 67 62 
47 68 62 59 68 62 49 69 62 
57 69 62 50 45 63 56 45 63 
48 46 63 58 46 63 46 47 63 
60 47 63 43 50 63 63 50 63 
42 52 63 64 52 63 41 54 63 
65 54 63 41 60 63 65 60 63 
42 62 63 64 62 63 43 64 63 
63 64 63 46 67 63 60 67 63 
48 68 63 58 68 63 50 69 63 
56 69 63 49 46 64 57 46 64 
47 47 64 59 47 64 45 48 64 
61 48 64 44 49 64 62 49 64 
43 51 64 63 51 64 42 53 64 
64 53 64 42 61 64 64 61 64 
43 63 64 63 63 64 44 65 64 
62 65 64 45 66 64 61 66 64 
47 67 64 59 67 64 49 68 64 
57 68 64 50 46 65 56 46 65 
48 47 65 58 47 65 46 48 65 
60 48 65 44 50 65 62 50 65 
43 52 65 63 52 65 42 54 65 
64 54 65 42 60 65 64 60 65 
43 62 65 63 62 65 44 64 65 
62 64 65 46 66 65 60 66 65 
48 67 65 58 67 65 50 68 65 
56 68 65 49 47 66 57 47 66 
47 48 66 59 48 66 45 49 66 
61 49 66 44 51 66 62 51 66 
43 53 66 63 53 66 43 61 66 
63 61 66 44 63 66 62 63 66 
45 65 66 61 65 66 47 66 66 
59 66 66 49 67 66 57 67 66 
50 47 67 56 47 67 48 48 67 
58 48 67 46 49 67 60 49 67 
45 50 67 61 50 67 44 52 67 
62 52 67 43 54 67 63 54 67 
43 60 67 63 60 67 44 62 67 
62 62 67 45 64 67 61 64 67 
46 65 67 60 65 67 48 66 67 
58 66 67 50 67 67 56 67 67 
50 48 68 56 48 68 48 49 68 
58 49 68 47 50 68 59 50 68 
46 51 68 60 51 68 45 52 68 
61 52 68 44 54 68 62 54 68 
44 60 68 62 60 68 45 62 68 
61 62 68 46 63 68 60 63 68 
47 64 68 59 64 68 48 65 68 
58 65 68 50 66 68 56 66 68 
50 49 69 56 49 69 49 50 69 
57 50 69 48 51 69 58 51 69 
47 52 69 59 52 69 46 53 69 
60 53 69 45 54 69 61 54 69 
45 60 69 61 60 69 46 61 69 
60 61 69 47 62 69 59 62 69 
48 63 69 58 63 69 49 64 69 
57 64 69 50 65 69 56 65 69 
50 51 70 56 51 70 49 52 70 
57 52 70 48 53 70 58 53 70 
47 54 70 59 54 70 47 60 70 
59 60 70 48 61 70 58 61 70 
49 62 70 57 62 70 50 63 70 
56 63 70 50 53 71 56 53 71 
49 54 71 57 54 71 49 60 71 
57 60 71 50 61 71 56 61 71 
42 41 27 47 40 27 41 42 27 
48 41 27 42 47 27 49 46 27 
43 48 27 48 47 27 42 39 28 
47 38 28 41 40 28 43 39 28 
44 39 28 45 39 28 46 39 28 
47 39 28 48 39 28 40 41 28 
49 40 28 39 42 28 40 42 28 
50 42 28 50 41 28 40 43 28 
50 43 28 40 44 28 50 44 28 
40 45 28 50 45 28 40 46 28 
50 46 28 40 47 28 51 46 28 
41 48 28 50 47 28 42 49 28 
43 49 28 44 49 28 45 49 28 
46 49 28 47 49 28 49 48 28 
43 50 28 48 49 28 42 37 29 
47 36 29 41 38 29 43 37 29 
44 37 29 45 37 29 46 37 29 
47 37 29 48 37 29 40 39 29 
49 38 29 39 40 29 50 39 29 
38 41 29 51 40 29 37 42 29 
38 42 29 52 42 29 52 41 29 
38 43 29 52 43 29 38 44 29 
52 44 29 38 45 29 52 45 29 
38 46 29 52 46 29 38 47 29 
53 46 29 39 48 29 52 47 29 
40 49 29 51 48 29 41 50 29 
50 49 29 42 51 29 43 51 29 
44 51 29 45 51 29 46 51 29 
47 51 29 49 50 29 43 52 29 
48 51 29 43 35 30 44 35 30 
45 35 30 46 35 30 47 35 30 
40 37 30 49 36 30 39 38 30 
50 37 30 38 39 30 51 38 30 
37 40 30 52 39 30 36 42 30 
54 42 30 36 43 30 54 43 30 
36 44 30 54 44 30 36 45 30 
54 45 30 36 46 30 54 46 30 
38 49 30 53 48 30 39 50 30 
52 49 30 40 51 30 51 50 30 
41 52 30 50 51 30 43 53 30 
44 53 30 45 53 30 46 53 30 
47 53 30 43 34 31 44 34 31 
45 34 31 46 34 31 47 34 31 
41 35 31 49 35 31 38 37 31 
51 36 31 37 38 31 52 37 31 
36 40 31 54 40 31 35 42 31 
55 42 31 35 43 31 55 43 31 
35 44 31 55 44 31 35 45 31 
55 45 31 35 46 31 55 46 31 
36 48 31 54 48 31 38 51 31 
53 50 31 39 52 31 52 51 31 
41 53 31 49 53 31 43 54 31 
44 54 31 45 54 31 46 54 31 
47 54 31 43 33 32 48 33 33 
41 34 32 50 34 33 39 35 32 
52 35 33 36 37 33 54 38 32 
35 39 33 55 40 32 34 41 33 
56 42 32 34 46 32 56 47 33 
35 48 32 55 49 33 36 50 32 
54 51 33 38 53 33 51 53 32 
40 54 33 49 54 32 42 55 33 
47 55 32 42 33 33 43 33 33 
44 33 33 45 33 33 46 33 33 
47 33 33 49 33 34 40 34 33 
51 34 34 38 35 33 53 35 34 
36 36 34 54 37 33 35 38 34 
55 39 33 34 40 34 56 41 33 
34 42 33 56 42 33 34 43 33 
56 43 33 34 44 33 56 44 33 
34 45 33 56 45 33 34 46 33 
56 46 33 34 47 33 56 48 34 
35 49 33 55 50 34 36 51 33 
54 52 34 37 53 34 52 53 33 
39 54 34 50 54 33 41 55 34 
43 55 33 44 55 33 45 55 33 
46 55 33 47 55 33 48 55 33 
43 32 34 48 32 35 41 33 34 
50 33 35 39 34 34 52 34 35 
[...]
POINT_DATA 3558
SCALARS scalars double
LOOKUP_TABLE default
1 1 1 1 1 1 1 1 1 
1 1 1 1 1 1 1 1 1 
1 1 1 1 1 1 1 1 1 
1 1 1 1 1 1 1 1 1 
1 1 1 1 1 1 1 1 1 
1 1 1 1 1 1 1 1 1 
1 1 1 1 1 1 1 1 1 
1 1 1 1 1 1 1 1 1 
1 1 1 1 1 1 1 1 1 
1 1 1 1 1 1 1 1 1 
1 1 1 1 1 1 1 1 1 
1 1 1 1 1 1 1 1 1 
1 1 1 1 1 1 1 1 1 
1 1 1 1 1 1 1 1 1 
1 1 1 1 1 1 1 1 1 
1 1 1 1 1 1 1 1 1 
1 1 1 1 1 1 1 1 1 
1 1 1 1 1 1 1 1 1 
1 1 1 1 1 1 1 1 1 
1 1 1 1 1 1 1 1 1 
1 1 1 1 1 1 1 1 1 
1 1 1 1 1 1 1 1 1 
1 1 1 1 1 1 1 1 1 
1 1 1 1 1 1 1 1 1 
1 1 1 1 1 1 1 1 1 
1 1 1 1 1 1 1 1 1 
1 1 1 1 1 1 1 1 1 
1 1 1 1 1 1 1 1 1 
1 1 1 1 1 1 1 1 1 
1 1 1 1 1 1 1 1 1 
1 1 1 1 1 1 1 1 1 
1 1 1 1 1 1 1 1 1 
1 1 1 1 1 1 1 1 1 
1 1 1 1 1 1 1 1 1 
1 1 1 1 1 1 1 1 1 
1 1 1 1 1 1 1 1 1 
1 1 1 1 1 1 1 1 1 
1 1 1 1 1 1 1 1 1 
1 1 1 1 1 1 1 1 1 
1 1 1 1 1 1 1 1 1 
1 1 1 1 1 1 1 1 1 
1 1 1 1 1 1 1 1 1 
1 1 1 1 1 1 1 1 1 
1 1 1 1 1 1 1 1 1 
1 1 1 1 1 1 1 1 1 
1 1 1 1 1 1 1 1 1 
1 1 1 1 1 1 1 1 1 
1 1 1 1 1 1 1 1 1 
1 1 1 1 1 1 1 1 1 
1 1 1 1 1 1 1 1 1 
1 1 1 1 1 1 1 1 1 
1 1 1 1 1 1 1 1 1 
1 1 1 1 1 1 1 1 1 
1 1 1 1 1 1 1 1 1 
1 1 1 1 1 1 1 1 1 
1 1 1 1 1 1 1 1 1 
1 1 1 1 1 1 1 1 1 
1 1 1 1 1 1 1 1 1 
1 1 1 1 1 1 1 1 1 
1 1 1 1 1 1 1 1 1 
1 1 1 1 1 1 1 1 1 
1 1 1 1 1 1 1 1 1 
1 1 1 1 1 1 1 1 1 
1 1 1 1 1 1 1 1 1 
1 1 1 1 1 1 1 1 1 
1 1 1 1 1 1 1 1 1 
1 1 1 1 1 1 1 1 1 
1 1 1 1 1 1 1 1 1 
1 1 1 1 1 1 1 1 1 
1 1 1 1 1 1 1 1 1 
1 1 1 1 1 1 1 1 1 
1 1 1 1 1 1 1 1 1 
1 1 1 1 1 1 1 1 1 
1 1 1 1 1 1 1 1 1 
1 1 1 1 1 1 1 1 1 
1 1 1 1 1 1 1 1 1 
1 1 1 1 1 1 1 1 1 
1 1 1 1 1 1 1 1 1 
1 1 1 1 1 1 1 1 1 
1 1 1 1 1 1 1 1 1 
1 1 1 1 1 1 1 1 1 
1 1 1 1 1 1 1 1 1 
1 1 1 1 1 1 1 1 1 
1 1 1 1 1 1 1 1 1 
1 1 1 1 1 1 1 1 1 
1 1 1 1 1 1 1 1 1 
1 1 1 1 1 1 1 1 1 
1 1 1 1 1 1 1 1 1 
1 1 1 1 1 1 1 1 1 
1 1 1 1 1 1 1 1 1 
1 1 1 1 1 1 1 1 1 
1 1 1 1 1 1 1 1 1 
1 1 1 1 1 1 1 1 1 
1 1 1 1 1 1 1 1 1 
1 1 1 1 1 1 1 1 1 
1 1 1 1 1 1 1 1 1 
1 1 1 1 1 1 1 1 1 
1 1 1 1 1 1 1 1 1 
1 1 1 1 1 1 1 1 1 
1 1 1 1 1 1 1 1 1 
1 1 1 1 1 1 1 1 1 
1 1 1 1 1 1 1 1 1 
1 1 1 1 1 1 1 1 1 
1 1 1 1 1 1 1 1 1 
1 1 1 1 1 1 1 1 1 
1 1 1 1 1 1 1 1 1 
1 1 1 1 1 1 1 1 1 
1 1 1 1 1 1 1 1 1 
1 1 1 1 1 1 1 1 1 
1 1 1 1 1 1 1 1 1 
1 1 1 1 1 1 1 1 1 
1 1 1 1 1 1 1 1 1 
1 1 1 1 1 1 1 1 1 
1 1 1 1 1 1 1 1 1 
1 1 1 1 1 1 1 1 1 
1 1 1 1 1 1 1 1 1 
1 1 1 1 1 1 1 1 1 
1 1 1 1 1 1 1 1 1 
1 1 1 1 1 1 1 1 1 
1 1 1 1 1 1 1 1 1 
1 1 1 1 1 1 1 1 1 
1 1 1 1 1 1 1 1 1 
1 1 1 1 1 1 1 1 1 
1 1 1 1 1 1 1 1 1 
1 1 1 1 1 1 1 1 1 
1 1 1 1 1 1 1 1 1 
1 1 1 1 1 1 1 1 1 
1 1 1 1 1 1 1 1 1 
1 1 1 1 1 1 1 1 1 
1 1 1 1 1 1 1 1 1 
1 1 1 1 1 1 1 1 1 
1 1 1 1 1 1 1 1 1 
1 1 1 1 1 1 1 1 1 
1 1 1 1 1 1 1 1 1 
1 1 1 1 1 1 1 1 1 
1 1 1 1 1 1 1 1 1 
1 1 1 1 1 1 1 1 1 
1 1 1 1 1 1 1 1 1 
1 1 1 1 1 1 1 1 1 
1 1 1 1 1 1 1 1 1 
1 1 1 1 1 1 1 1 1 
1 1 1 1 1 1 1 1 1 
1 1 1 1 1 1 1 1 1 
1 1 1 1 1 1 1 1 1 
1 1 1 1 1 1 1 1 1 
1 1 1 1 1 1 1 1 1 
1 1 1 1 1 1 1 1 1 
1 1 1 1 1 1 1 1 1 
1 1 1 1 1 1 1 1 1 
1 1 1 1 1 1 1 1 1 
1 1 1 1 1 1 1 1 1 
1 1 1 1 1 1 1 1 1 
1 1 1 1 1 1 1 1 1 
1 1 1 1 1 1 1 1 1 
1 1 1 1 1 1 1 1 1 
1 1 1 1 1 1 1 1 1 
1 1 1 1 1 1 1 1 1 
1 1 1 1 1 1 1 1 1 
1 1 1 1 1 1 1 1 1 
1 1 1 1 1 1 1 1 1 
1 1 1 1 1 1 1 1 1 
1 1 1 1 1 1 1 1 1 
1 1 1 1 1 1 1 1 1 
1 1 1 1 1 1 1 1 1 
1 1 1 1 1 1 1 1 1 
1 1 1 1 1 1 1 1 1 
1 1 1 1 1 1 1 1 1 
1 1 1 1 1 1 1 1 1 
1 1 1 1 1 1 1 1 1 
1 1 1 1 1 1 1 1 1 
1 1 1 1 1 1 1 1 1 
1 1 1 1 1 1 1 1 1 
1 1 1 1 1 1 1 1 1 
1 1 1 1 1 1 1 1 1 
1 1 1 1 1 1 1 1 1 
1 1 1 1 1 1 1 1 1 
1 1 1 1 1 1 1 1 1 
1 1 1 1 1 1 1 1 1 
1 1 1 1 1 1 1 1 1 
1 1 1 1 1 1 1 1 1 
1 1 1 1 1 1 1 1 1 
1 1 1 1 1 1 1 1 1 
1 1 1 1 1 1 1 1 1 
1 1 1 1 1 1 1 1 1 
1 1 1 1 1 1 1 1 1 
1 1 1 1 1 1 1 1 1 
1 1 1 1 1 1 1 1 1 
1 1 1 1 1 1 1 1 1 
1 1 1 1 1 1 1 1 1 
1 1 1 1 1 1 1 1 1 
1 1 1 1 1 1 1 1 1 
1 1 1 1 1 1 1 1 1 
1 1 1 1 1 1 1 1 1 
1 1 1 1 1 1 1 1 1 
1 1 1 1 1 1 1 1 1 
1 1 1 1 1 1 1 1 1 
1 1 1 1 1 1 1 1 1 
1 1 1 1 1 1 1 1 1 
1 1 1 1 1 1 1 1 1 
1 1 1 1 1 1 1 1 1 
1 1 1 1 1 1 1 1 1 
1 1 1 1 1 1 1 1 1 
1 1 1 1 1 1 1 1 1 
1 1 1 1 1 1 1 1 1 
1 1 1 1 1 1 1 1 1 
1 1 1 1 1 1 1 1 1 
1 1 1 1 1 1 1 1 1 
1 1 1 1 1 1 1 1 1 
1 1 1 1 1 1 1 1 1 
1 1 1 1 1 1 1 1 1 
1 1 1 1 1 1 1 1 1 
1 1 1 1 1 1 1 1 1 
1 1 1 1 1 1 1 1 1 
1 1 1 1 1 1 1 1 1 
1 1 1 1 1 1 1 1 1 
1 1 1 1 1 1 1 1 1 
1 1 1 1 1 1 1 1 1 
1 1 1 1 1 1 1 1 1 
1 1 1 1 1 1 1 1 1 
1 1 1 1 1 1 1 1 1 
1 1 1 1 1 1 1 1 1 
1 1 1 1 1 1 1 1 1 
1 1 1 1 1 1 1 1 1 
1 1 1 1 1 1 1 1 1 
1 1 1 1 1 1 1 1 1 
1 1 1 1 1 1 1 1 1 
1 1 1 1 1 1 1 1 1 
1 1 1 1 1 1 1 1 1 
1 1 1 1 1 1 1 1 1 
1 1 1 1 1 1 1 1 1 
1 1 1 1 1 1 1 1 1 
1 1 1 1 1 1 1 1 1 
1 1 1 1 1 1 1 1 1 
1 1 1 1 1 1 1 1 1 
1 1 1 1 1 1 1 1 1 
1 1 1 1 1 1 1 1 1 
1 1 1 1 1 1 1 1 1 
1 1 1 1 1 1 1 1 1 
1 1 1 1 1 1 1 1 1 
1 1 1 1 1 1 1 1 1 
1 1 1 1 1 1 1 1 1 
1 1 1 1 1 1 1 1 1 
1 1 1 1 1 1 1 1 1 
1 1 1 1 1 1 1 1 1 
1 1 1 1 1 1 1 1 1 
1 1 1 1 1 1 1 1 1 
1 1 1 1 1 1 1 1 1 
1 1 1 1 1 1 1 1 1 
1 1 1 1 1 1 1 1 1 
1 1 1 1 1 1 1 1 1 
1 1 1 1 1 1 1 1 1 
1 1 1 1 1 1 1 1 1 
1 1 1 1 1 1 1 1 1 
1 1 1 1 1 1 1 1 1 
1 1 1 1 1 1 1 1 1 
1 1 1 1 1 1 1 1 1 
1 1 1 1 1 1 1 1 1 
1 1 1 1 1 1 1 1 1 
1 1 1 1 1 1 1 1 1 
1 1 1 1 1 1 1 1 1 
1 1 1 1 1 1 1 1 1 
1 1 1 1 1 1 1 1 1 
1 1 1 1 1 1 1 1 1 
1 1 1 1 1 1 1 1 1 
1 1 1 1 1 1 1 1 1 
1 1 1 1 1 1 1 1 1 
1 1 1 1 1 1 1 1 1 
1 1 1 1 1 1 1 1 1 
1 1 1 1 1 1 1 1 1 
1 1 1 1 1 1 1 1 1 
1 1 1 1 1 1 1 1 1 
1 1 1 1 1 1 1 1 1 
1 1 1 1 1 1 1 1 1 
1 1 1 1 1 1 1 1 1 
1 1 1 1 1 1 1 1 1 
1 1 1 1 1 1 1 1 1 
1 1 1 1 1 1 1 1 1 
1 1 1 1 1 1 1 1 1 
1 1 1 1 1 1 1 1 1 
1 1 1 1 1 1 1 1 1 
1 1 1 1 1 1 1 1 1 
1 1 1 1 1 1 1 1 1 
1 1 1 1 1 1 1 1 1 
1 1 1 1 1 1 1 1 1 
1 1 1 1 1 1 1 1 1 
1 1 1 1 1 1 1 1 1 
1 1 1 1 1 1 1 1 1 
1 1 1 1 1 1 1 1 1 
1 1 1 1 1 1 1 1 1 
1 1 1 1 1 1 1 1 1 
1 1 1 1 1 1 1 1 1 
1 1 1 1 1 1 1 1 1 
1 1 1 1 1 1 1 1 1 
1 1 1 1 1 1 1 1 1 
1 1 1 1 1 1 1 1 1 
1 1 1 1 1 1 1 1 1 
1 1 1 1 1 1 1 1 1 
1 1 1 1 1 1 1 1 1 
1 1 1 1 1 1 1 1 1 
1 1 1 1 1 1 1 1 1 
1 1 1 1 1 1 1 1 1 
1 1 1 1 1 1 1 1 1 
1 1 1 1 1 1 1 1 1 
1 1 1 1 1 1 1 1 1 
1 1 1 1 1 1 1 1 1 
1 1 1 1 1 1 1 1 1 
1 1 1 1 1 1 1 1 1 
1 1 1 1 1 1 1 1 1 
1 1 1 1 1 1 1 1 1 
1 1 1 1 1 1 1 1 1 
1 1 1 1 1 1 1 1 1 
1 1 1 1 1 1 1 1 1 
1 1 1 1 1 1 1 1 1 
1 1 1 1 1 1 1 1 1 
1 1 1 1 1 1 1 1 1 
1 1 1 1 1 1 1 1 1 
1 1 1 1 1 1 1 1 1 
1 1 1 1 1 1 1 1 1 
1 1 1 1 1 1 1 1 1 
1 1 1 1 1 1 1 1 1 
1 1 1 1 1 1 1 1 1 
1 1 1 1 1 1 1 1 1 
1 1 1 1 1 1 1 1 1 
1 1 1 1 1 1 1 1 1 
1 1 1 1 1 1 1 1 1 
1 1 1 1 1 1 1 1 1 
1 1 1 1 1 1 1 1 1 
1 1 1 1 1 1 1 1 1 
1 1 1 1 1 1 1 1 1 
1 1 1 1 1 1 1 1 1 
1 1 1 1 1 1 1 1 1 
1 1 1 1 1 1 1 1 1 
1 1 1 1 1 1 1 1 1 
1 1 1 1 1 1 1 1 1 
1 1 1 1 1 1 1 1 1 
1 1 1 1 1 1 1 1 1 
1 1 1 1 1 1 1 1 1 
1 1 1 1 1 1 1 1 1 
1 1 1 1 1 1 1 1 1 
1 1 1 1 1 1 1 1 1 
1 1 1 1 1 1 1 1 1 
1 1 1 1 1 1 1 1 1 
1 1 1 1 1 1 1 1 1 
1 1 1 1 1 1 1 1 1 
1 1 1 1 1 1 1 1 1 
1 1 1 1 1 1 1 1 1 
1 1 1 1 1 1 1 1 1 
1 1 1 1 1 1 1 1 1 
1 1 1 1 1 1 1 1 1 
1 1 1 1 1 1 1 1 1 
1 1 1 1 1 1 1 1 1 
1 1 1 1 1 1 1 1 1 
1 1 1 1 1 1 1 1 1 
1 1 1 1 1 1 1 1 1 
1 1 1 1 1 1 1 1 1 
1 1 1 1 1 1 1 1 1 
1 1 1 1 1 1 1 1 1 
1 1 1 1 1 1 1 1 1 
1 1 1 1 1 1 1 1 1 
1 1 1 1 1 1 1 1 1 
1 1 1 1 1 1 1 1 1 
1 1 1 1 1 1 1 1 1 
1 1 1 1 1 1 1 1 1 
1 1 1 1 1 1 1 1 1 
1 1 1 1 1 1 1 1 1 
1 1 1 1 1 1 1 1 1 
1 1 1 1 1 1 1 1 1 
1 1 1 1 1 1 1 1 1 
1 1 1 1 1 1 1 1 1 
1 1 1 1 1 1 1 1 1 
1 1 1 1 1 1 1 1 1 
1 1 1 1 1 1 1 1 1 
1 1 1 1 1 1 1 1 1 
1 1 1 1 1 1 1 1 1 
1 1 1 1 1 1 1 1 1 
1 1 1 1 1 1 1 1 1 
1 1 1 1 1 1 1 1 1 
1 1 1 1 1 1 1 1 1 
1 1 1 1 1 1 1 1 1 
1 1 1 1 1 1 1 1 1 
1 1 1 1 1 1 1 1 1 
1 1 1 1 1 1 1 1 1 
1 1 1 1 1 1 1 1 1 
1 1 1 1 1 1 1 1 1 
1 1 1 1 1 1 1 1 1 
1 1 1 1 1 1 1 1 1 
1 1 1 1 1 1 1 1 1 
1 1 1 1 1 1 1 1 1 
1 1 1 1 1 1 1 1 1 
1 1 1 1 1 1 1 1 1 
1 1 1 1 1 1 1 1 1 
1 1 1 1 1 1 1 1 1 
1 1 1 1 1 1 1 1 1 
1 1 1 1 1 1 1 1 1 
1 1 1 1 1 1 1 1 1 
1 1 1 
NORMALS normals float
-0.57735 -0.57735 -0.57735 0.57735 -0.57735 -0.57735 -0.57735 -0.57735 -0.57735 
0.57735 -0.57735 -0.57735 -0.57735 0.57735 -0.57735 0.57735 0.57735 -0.57735 
-0.57735 0.57735 -0.57735 0.57735 0.57735 -0.57735 -0.57735 -0.57735 -0.57735 
0.57735 -0.57735 -0.57735 -0.57735 -0.57735 -0.57735 0.57735 -0.57735 -0.57735 
-0.57735 -0.57735 -0.57735 0.57735 -0.57735 -0.57735 -0.57735 -0.57735 -0.57735 
0.57735 -0.57735 -0.57735 -0.57735 0.57735 -0.57735 0.57735 0.57735 -0.57735 
-0.57735 0.57735 -0.57735 0.57735 0.57735 -0.57735 -0.57735 0.57735 -0.57735 
0.57735 0.57735 -0.57735 -0.57735 0.57735 -0.57735 0.57735 0.57735 -0.57735 
-0.57735 -0.57735 -0.57735 0.57735 -0.57735 -0.57735 -0.57735 -0.57735 -0.57735 
0.57735 -0.57735 -0.57735 -0.57735 -0.57735 -0.57735 0.57735 -0.57735 -0.57735 
-0.57735 -0.57735 -0.57735 0.57735 -0.57735 -0.57735 -0.57735 -0.57735 -0.57735 
0.57735 -0.57735 -0.57735 -0.57735 -0.57735 -0.57735 0.57735 -0.57735 -0.57735 
-0.57735 0.57735 -0.57735 0.57735 0.57735 -0.57735 -0.57735 0.57735 -0.57735 
0.57735 0.57735 -0.57735 -0.57735 0.57735 -0.57735 0.57735 0.57735 -0.57735 
-0.57735 0.57735 -0.57735 0.57735 0.57735 -0.57735 -0.57735 0.57735 -0.57735 
0.57735 0.57735 -0.57735 -0.57735 0.57735 -0.57735 0.57735 0.57735 -0.57735 
-0.57735 -0.57735 -0.57735 0.57735 -0.57735 -0.57735 -0.57735 -0.57735 -0.57735 
0.57735 -0.57735 -0.57735 -0.57735 -0.57735 -0.57735 0.57735 -0.57735 -0.57735 
-0.57735 -0.57735 -0.57735 0.57735 -0.57735 -0.57735 -0.57735 -0.57735 -0.57735 
0.57735 -0.57735 -0.57735 -0.57735 -0.57735 -0.57735 0.57735 -0.57735 -0.57735 
-0.57735 0.57735 -0.57735 0.57735 0.57735 -0.57735 -0.57735 0.57735 -0.57735 
0.57735 0.57735 -0.57735 -0.57735 0.57735 -0.57735 0.57735 0.57735 -0.57735 
-0.57735 0.57735 -0.57735 0.57735 0.57735 -0.57735 -0.57735 0.57735 -0.57735 
0.57735 0.57735 -0.57735 -0.57735 0.57735 -0.57735 0.57735 0.57735 -0.57735 
-0.57735 -0.57735 -0.57735 0.57735 -0.57735 -0.57735 -0.57735 -0.57735 -0.57735 
0.57735 -0.57735 -0.57735 -0.57735 -0.57735 -0.57735 0.57735 -0.57735 -0.57735 
-0.57735 -0.57735 -0.57735 0.57735 -0.57735 -0.57735 -0.57735 -0.57735 -0.57735 
0.57735 -0.57735 -0.57735 -0.57735 -0.57735 -0.57735 0.57735 -0.57735 -0.57735 
-0.57735 0.57735 -0.57735 0.57735 0.57735 -0.57735 -0.57735 0.57735 -0.57735 
0.57735 0.57735 -0.57735 -0.57735 0.57735 -0.57735 0.57735 0.57735 -0.57735 
-0.57735 0.57735 -0.57735 0.57735 0.57735 -0.57735 -0.57735 0.57735 -0.57735 
0.57735 0.57735 -0.57735 -0.57735 0.57735 -0.57735 0.57735 0.57735 -0.57735 
-0.57735 -0.57735 -0.57735 0.57735 -0.57735 -0.57735 -0.57735 -0.57735 -0.57735 
0.57735 -0.57735 -0.57735 -0.57735 -0.57735 -0.57735 0.57735 -0.57735 -0.57735 
-0.57735 -0.57735 -0.57735 0.57735 -0.57735 -0.57735 -0.57735 -0.57735 -0.57735 
0.57735 -0.57735 -0.57735 -0.57735 0.57735 -0.57735 0.57735 0.57735 -0.57735 
-0.57735 0.57735 -0.57735 0.57735 0.57735 -0.57735 -0.57735 0.57735 -0.57735 
0.57735 0.57735 -0.57735 -0.57735 0.57735 -0.57735 0.57735 0.57735 -0.57735 
-0.57735 0.57735 -0.57735 0.57735 0.57735 -0.57735 -0.57735 -0.57735 -0.57735 
0.57735 -0.57735 -0.57735 -0.57735 -0.57735 -0.57735 0.57735 -0.57735 -0.57735 
-0.57735 -0.57735 -0.57735 0.57735 -0.57735 -0.57735 -0.57735 -0.57735 -0.57735 
0.57735 -0.57735 -0.57735 -0.57735 -0.57735 -0.57735 0.57735 -0.57735 -0.57735 
-0.57735 -0.57735 -0.57735 0.57735 -0.57735 -0.57735 -0.57735 0.57735 -0.57735 
0.57735 0.57735 -0.57735 -0.57735 0.57735 -0.57735 0.57735 0.57735 -0.57735 
-0.57735 0.57735 -0.57735 0.57735 0.57735 -0.57735 -0.57735 0.57735 -0.57735 
0.57735 0.57735 -0.57735 -0.57735 0.57735 -0.57735 0.57735 0.57735 -0.57735 
-0.57735 0.57735 -0.57735 0.57735 0.57735 -0.57735 -0.57735 -0.57735 -0.57735 
0.57735 -0.57735 -0.57735 -0.57735 -0.57735 -0.57735 0.57735 -0.57735 -0.57735 
-0.57735 -0.57735 -0.57735 0.57735 -0.57735 -0.57735 -0.57735 -0.57735 -0.57735 
0.57735 -0.57735 -0.57735 -0.57735 -0.57735 -0.57735 0.57735 -0.57735 -0.57735 
-0.57735 -0.57735 -0.57735 0.57735 -0.57735 -0.57735 -0.57735 0.57735 -0.57735 
0.57735 0.57735 -0.57735 -0.57735 0.57735 -0.57735 0.57735 0.57735 -0.57735 
-0.57735 0.57735 -0.57735 0.57735 0.57735 -0.57735 -0.57735 0.57735 -0.57735 
0.57735 0.57735 -0.57735 -0.57735 0.57735 -0.57735 0.57735 0.57735 -0.57735 
-0.57735 0.57735 -0.57735 0.57735 0.57735 -0.57735 -0.57735 -0.57735 -0.57735 
0.57735 -0.57735 -0.57735 -0.57735 -0.57735 -0.57735 0.57735 -0.57735 -0.57735 
-0.57735 -0.57735 -0.57735 0.57735 -0.57735 -0.57735 -0.57735 -0.57735 -0.57735 
0.57735 -0.57735 -0.57735 -0.57735 -0.57735 -0.57735 0.57735 -0.57735 -0.57735 
-0.57735 -0.57735 -0.57735 0.57735 -0.57735 -0.57735 -0.57735 0.57735 -0.57735 
0.57735 0.57735 -0.57735 -0.57735 0.57735 -0.57735 0.57735 0.57735 -0.57735 
-0.57735 0.57735 -0.57735 0.57735 0.57735 -0.57735 -0.57735 0.57735 -0.57735 
0.57735 0.57735 -0.57735 -0.57735 0.57735 -0.57735 0.57735 0.57735 -0.57735 
-0.57735 0.57735 -0.57735 0.57735 0.57735 -0.57735 -0.57735 -0.57735 -0.57735 
0.57735 -0.57735 -0.57735 -0.57735 -0.57735 -0.57735 0.57735 -0.57735 -0.57735 
-0.57735 -0.57735 -0.57735 0.57735 -0.57735 -0.57735 -0.57735 -0.57735 -0.57735 
0.57735 -0.57735 -0.57735 -0.57735 -0.57735 -0.57735 0.57735 -0.57735 -0.57735 
-0.57735 -0.57735 -0.57735 0.57735 -0.57735 -0.57735 -0.57735 -0.57735 -0.57735 
0.57735 -0.57735 -0.57735 -0.57735 0.57735 -0.57735 0.57735 0.57735 -0.57735 
-0.57735 0.57735 -0.57735 0.57735 0.57735 -0.57735 -0.57735 0.57735 -0.57735 
0.57735 0.57735 -0.57735 -0.57735 0.57735 -0.57735 0.57735 0.57735 -0.57735 
-0.57735 0.57735 -0.57735 0.57735 0.57735 -0.57735 -0.57735 0.57735 -0.57735 
0.57735 0.57735 -0.57735 -0.57735 0.57735 -0.57735 0.57735 0.57735 -0.57735 
-0.57735 -0.57735 0.57735 0.57735 -0.57735 0.57735 -0.57735 -0.57735 0.57735 
0.57735 -0.57735 0.57735 -0.57735 -0.57735 0.57735 0.57735 -0.57735 0.57735 
-0.57735 -0.57735 0.57735 0.57735 -0.57735 0.57735 -0.57735 -0.57735 0.57735 
0.57735 -0.57735 0.57735 -0.57735 -0.57735 0.57735 0.57735 -0.57735 0.57735 
-0.57735 -0.57735 0.57735 0.57735 -0.57735 0.57735 -0.57735 0.57735 0.57735 
0.57735 0.57735 0.57735 -0.57735 0.57735 0.57735 0.57735 0.57735 0.57735 
-0.57735 0.57735 0.57735 0.57735 0.57735 0.57735 -0.57735 0.57735 0.57735 
0.57735 0.57735 0.57735 -0.57735 0.57735 0.57735 0.57735 0.57735 0.57735 
-0.57735 0.57735 0.57735 0.57735 0.57735 0.57735 -0.57735 0.57735 0.57735 
0.57735 0.57735 0.57735 -0.57735 -0.57735 0.57735 0.57735 -0.57735 0.57735 
-0.57735 -0.57735 0.57735 0.57735 -0.57735 0.57735 -0.57735 -0.57735 0.57735 
0.57735 -0.57735 0.57735 -0.57735 -0.57735 0.57735 0.57735 -0.57735 0.57735 
-0.57735 -0.57735 0.57735 0.57735 -0.57735 0.57735 -0.57735 -0.57735 0.57735 
0.57735 -0.57735 0.57735 -0.57735 0.57735 0.57735 0.57735 0.57735 0.57735 
-0.57735 0.57735 0.57735 0.57735 0.57735 0.57735 -0.57735 0.57735 0.57735 
0.57735 0.57735 0.57735 -0.57735 0.57735 0.57735 0.57735 0.57735 0.57735 
-0.57735 0.57735 0.57735 0.57735 0.57735 0.57735 -0.57735 0.57735 0.57735 
0.57735 0.57735 0.57735 -0.57735 -0.57735 0.57735 0.57735 -0.57735 0.57735 
-0.57735 -0.57735 0.57735 0.57735 -0.57735 0.57735 -0.57735 -0.57735 0.57735 
0.57735 -0.57735 0.57735 -0.57735 -0.57735 0.57735 0.57735 -0.57735 0.57735 
-0.57735 -0.57735 0.57735 0.57735 -0.57735 0.57735 -0.57735 -0.57735 0.57735 
0.57735 -0.57735 0.57735 -0.57735 0.57735 0.57735 0.57735 0.57735 0.57735 
-0.57735 0.57735 0.57735 0.57735 0.57735 0.57735 -0.57735 0.57735 0.57735 
0.57735 0.57735 0.57735 -0.57735 0.57735 0.57735 0.57735 0.57735 0.57735 
-0.57735 0.57735 0.57735 0.57735 0.57735 0.57735 -0.57735 0.57735 0.57735 
0.57735 0.57735 0.57735 -0.57735 -0.57735 0.57735 0.57735 -0.57735 0.57735 
-0.57735 -0.57735 0.57735 0.57735 -0.57735 0.57735 -0.57735 -0.57735 0.57735 
0.57735 -0.57735 0.57735 -0.57735 -0.57735 0.57735 0.57735 -0.57735 0.57735 
-0.57735 -0.57735 0.57735 0.57735 -0.57735 0.57735 -0.57735 -0.57735 0.57735 
0.57735 -0.57735 0.57735 -0.57735 0.57735 0.57735 0.57735 0.57735 0.57735 
-0.57735 0.57735 0.57735 0.57735 0.57735 0.57735 -0.57735 0.57735 0.57735 
0.57735 0.57735 0.57735 -0.57735 0.57735 0.57735 0.707107 0.707107 -0 
-0.57735 0.57735 0.57735 0.707107 0.707107 -0 -0.57735 0.57735 0.57735 
0.57735 0.57735 0.57735 -0.57735 -0.57735 0.57735 0.57735 -0.57735 0.57735 
-0.57735 -0.57735 0.57735 0.57735 -0.57735 0.57735 -0.57735 -0.57735 0.57735 
0.57735 -0.57735 0.57735 -0.57735 -0.57735 0.57735 0.57735 -0.57735 0.57735 
-0.57735 -0.57735 0.57735 0.57735 -0.57735 0.57735 -0.57735 0.57735 0.57735 
0.57735 0.57735 0.57735 -0.57735 0.57735 0.57735 0.57735 0.57735 0.57735 
-0.57735 0.57735 0.57735 1 -0 -0 -0.57735 0.57735 0.57735 
-0.57735 0.57735 0.57735 -nan -nan -nan -0.57735 -0.57735 0.57735 
0.57735 -0.57735 0.57735 -0.57735 -0.57735 0.57735 0.57735 -0.57735 0.57735 
-0.57735 -0.57735 0.57735 0.57735 -0.57735 0.57735 -0.57735 -0.57735 0.57735 
0.57735 -0.57735 0.57735 -0.57735 -0.57735 0.57735 0.57735 -0.57735 0.57735 
-0.57735 -0.57735 0.57735 0.57735 -0.57735 0.57735 -0.57735 0.57735 0.57735 
0.57735 0.57735 0.57735 -0.57735 0.57735 0.57735 0.707107 0.707107 -0 
-0.57735 0.57735 0.57735 -0.57735 0.57735 0.57735 -0.57735 0.57735 0.57735 
-0.57735 0.57735 0.57735 0.57735 -0.57735 -0.57735 0.57735 -0.57735 -0.57735 
-0.57735 0.57735 -0.57735 0.57735 0.57735 -0.57735 -0.57735 0.57735 -0.57735 
0.57735 0.57735 -0.57735 -0.57735 -0.57735 0.57735 0.57735 -0.57735 0.57735 
-0.57735 -0.57735 0.57735 0.57735 -0.57735 0.57735 -0.57735 -0.57735 0.57735 
0.57735 -0.57735 0.57735 -0.57735 -0.57735 0.57735 0.57735 -0.57735 0.57735 
-0.57735 -0.57735 0.57735 0.57735 -0.57735 0.57735 -0.57735 -0.57735 0.57735 
0.57735 -0.57735 0.57735 -0.57735 0.57735 0.57735 0.57735 0.57735 0.57735 
-0.57735 0.57735 0.57735 -0.57735 0.57735 0.57735 -0.57735 0.57735 0.57735 
0.57735 -0.57735 -0.57735 -0.57735 0.57735 0.57735 0.57735 -0.57735 -0.57735 
-0.57735 0.57735 0.57735 0.57735 -0.57735 -0.57735 -1 -0 -0 
0.57735 -0.57735 -0.57735 -0.57735 0.57735 -0.57735 0.57735 -0.57735 -0.57735 
-0.57735 0.57735 -0.57735 0.57735 0.57735 -0.57735 -0.57735 0.57735 -0.57735 
0.57735 0.57735 -0.57735 -0.57735 0.57735 -0.57735 0.57735 0.57735 -0.57735 
-0.57735 0.57735 -0.57735 0.57735 0.57735 -0.57735 -0.57735 -0.57735 0.57735 
0.57735 -0.57735 0.57735 -0.57735 -0.57735 0.57735 0.57735 -0.57735 0.57735 
-0.57735 -0.57735 0.57735 0.57735 -0.57735 0.57735 -0.57735 -0.57735 0.57735 
0.57735 -0.57735 0.57735 -0.57735 -0.57735 0.57735 0.57735 -0.57735 0.57735 
-0.57735 -0.57735 0.57735 0.57735 -0.57735 0.57735 -0.57735 0.57735 0.57735 
1 -0 -0 -0.57735 0.57735 0.57735 -0.57735 0.57735 0.57735 
0.707107 -0.707107 -0 -0.57735 0.57735 0.57735 0.57735 -0.57735 -0.57735 
-0.57735 0.57735 0.57735 0.57735 -0.57735 -0.57735 -0.57735 0.57735 0.57735 
0.57735 -0.57735 -0.57735 -0.707107 0.707107 -0 0.57735 -0.57735 -0.57735 
0.57735 -0.57735 -0.57735 0.57735 -0.57735 -0.57735 -0.57735 0.57735 -0.57735 
0.57735 0.57735 -0.57735 -0.57735 0.57735 -0.57735 0.57735 0.57735 -0.57735 
-0.57735 0.57735 -0.57735 0.57735 0.57735 -0.57735 -0.57735 0.57735 -0.57735 
0.57735 0.57735 -0.57735 -0.57735 0.57735 -0.57735 0.57735 0.57735 -0.57735 
-0.57735 0.57735 -0.57735 0.57735 0.57735 -0.57735 -0.57735 -0.57735 0.57735 
0.57735 -0.57735 0.57735 -0.57735 -0.57735 0.57735 0.57735 -0.57735 0.57735 
-0.57735 -0.57735 0.57735 0.57735 -0.57735 0.57735 -0.57735 -0.57735 0.57735 
0.57735 -0.57735 0.57735 -0.57735 0.57735 0.57735 0.57735 -0.57735 0.57735 
-0.57735 0.57735 0.57735 -0.57735 0.57735 0.57735 0.57735 -0.57735 -0.57735 
-0.57735 0.57735 0.57735 0.57735 -0.57735 -0.57735 -0.57735 0.57735 0.57735 
0.57735 -0.57735 -0.57735 0.57735 -0.57735 -0.57735 0.57735 -0.57735 -0.57735 
-0.57735 -0.57735 -0.57735 0.57735 -0.57735 -0.57735 -0.57735 0.57735 -0.57735 
0.57735 0.57735 -0.57735 -0.57735 0.57735 -0.57735 0.57735 0.57735 -0.57735 
-0.57735 0.57735 -0.57735 0.57735 0.57735 -0.57735 -0.57735 0.57735 -0.57735 
0.57735 0.57735 -0.57735 -0.57735 0.57735 -0.57735 0.57735 0.57735 -0.57735 
-0.57735 0.57735 -0.57735 0.57735 0.57735 -0.57735 -0.57735 -0.57735 0.57735 
0.57735 -0.57735 0.57735 -0.57735 -0.57735 0.57735 0.57735 -0.57735 0.57735 
-0.57735 0.57735 0.57735 -nan -nan -nan -0.57735 0.57735 0.57735 
0.57735 -0.57735 -0.57735 -1 -0 -0 0.57735 -0.57735 -0.57735 
0.57735 -0.57735 -0.57735 0.57735 -0.57735 -0.57735 -0.707107 -0.707107 -0 