# vtk DataFile Version 3.0
vtk output
ASCII
DATASET POLYDATA
POINTS 16864 float
38 35 10 38 34 11 37 35 11 
39 35 10 39 34 11 40 35 10 
40 34 11 41 35 10 41 34 11 
42 35 11 37 36 10 37 35 11 
36 36 11 38 36 10 39 36 10 
40 36 10 41 36 10 42 35 11 
42 36 10 43 36 10 43 35 11 
44 36 11 37 37 10 36 37 11 
38 37 10 39 37 10 40 37 10 
41 37 10 42 37 10 43 37 10 
44 37 11 37 38 10 36 38 11 
38 38 10 39 38 10 40 38 10 
41 38 10 42 38 10 43 38 10 
44 37 11 44 38 10 45 38 11 
37 39 10 36 39 11 38 39 10 
39 39 10 40 39 10 41 39 10 
42 39 10 43 39 10 44 39 10 
45 39 11 37 40 10 36 40 11 
38 40 10 39 40 10 40 40 10 
41 40 10 42 40 10 43 40 10 
44 40 10 45 40 11 37 41 10 
36 41 11 38 41 10 39 41 10 
40 41 10 41 41 10 42 41 10 
43 41 10 44 41 10 45 41 11 
37 42 10 36 42 11 38 42 10 
39 42 10 40 42 10 41 42 10 
42 42 10 43 42 10 44 42 11 
44 42 11 37 43 10 36 43 11 
38 43 10 39 43 10 40 43 10 
41 43 10 42 43 10 43 43 10 
44 43 11 37 44 11 37 44 11 
38 44 10 39 44 10 40 44 10 
41 44 10 42 44 11 42 44 11 
43 44 11 38 45 11 39 45 11 
40 45 11 41 45 11 39 31 11 
39 30 12 38 31 12 40 31 11 
40 30 12 41 31 12 35 32 11 
35 31 12 34 32 12 36 32 11 
36 31 12 37 32 11 37 31 12 
38 32 11 38 31 12 39 32 11 
40 32 11 41 31 12 41 32 11 
42 32 11 42 31 12 43 32 11 
43 31 12 44 32 11 44 31 12 
45 32 12 35 33 11 34 33 12 
36 33 11 37 33 11 38 33 11 
39 33 11 40 33 11 41 33 11 
42 33 11 43 33 11 44 33 11 
45 32 12 45 33 11 46 33 12 
35 34 11 34 34 12 36 34 11 
37 34 11 38 34 11 39 34 11 
40 34 11 41 34 11 42 34 11 
43 34 11 44 34 11 45 34 11 
46 33 12 46 34 11 47 34 12 
34 35 11 34 34 12 33 35 12 
35 35 11 36 35 11 37 35 11 
42 35 11 43 35 11 44 35 11 
45 35 11 46 35 11 47 34 12 
47 35 11 48 35 12 34 36 11 
33 36 12 35 36 11 36 36 11 
44 36 11 45 36 11 46 36 11 
47 36 11 48 36 12 34 37 11 
33 37 12 35 37 11 36 37 11 
44 37 11 45 37 11 46 37 11 
47 37 11 48 37 12 34 38 11 
33 38 12 35 38 11 36 38 11 
45 38 11 46 38 11 47 38 11 
48 38 12 34 39 11 33 39 12 
35 39 11 36 39 11 45 39 11 
46 39 11 47 39 11 48 38 12 
48 39 11 49 39 12 34 40 11 
33 40 12 35 40 11 36 40 11 
45 40 11 46 40 11 47 40 11 
48 40 11 49 40 12 34 41 11 
33 41 12 35 41 11 36 41 11 
45 41 11 46 41 11 47 41 11 
48 41 12 48 41 12 34 42 11 
33 42 12 35 42 11 36 42 11 
44 42 11 45 42 11 46 42 11 
47 42 11 48 42 12 34 43 11 
33 43 12 35 43 11 36 43 11 
44 43 11 45 43 11 46 43 11 
47 43 11 48 43 12 34 44 11 
33 44 12 35 44 11 36 44 11 
37 44 11 42 44 11 43 44 11 
44 44 11 45 44 11 46 44 11 
47 44 11 48 44 12 34 45 12 
34 45 12 35 45 11 36 45 11 
37 45 11 38 45 11 39 45 11 
40 45 11 41 45 11 42 45 11 
43 45 11 44 45 11 45 45 11 
46 45 11 47 45 12 47 45 12 
35 46 11 34 46 12 36 46 11 
37 46 11 38 46 11 39 46 11 
40 46 11 41 46 11 42 46 11 
43 46 11 44 46 11 45 46 11 
46 46 12 46 46 12 35 47 11 
34 47 12 36 47 11 37 47 11 
38 47 11 39 47 11 40 47 11 
41 47 11 42 47 11 43 47 11 
44 47 11 45 47 12 45 47 12 
35 48 12 36 48 12 37 48 12 
38 48 12 38 48 12 39 48 11 
40 48 11 41 48 12 41 48 12 
42 48 12 43 48 12 44 48 12 
39 49 12 40 49 12 35 29 12 
35 28 13 34 29 13 36 29 12 
36 28 13 37 29 12 37 28 13 
38 29 12 38 28 13 39 29 12 
39 28 13 40 29 12 40 28 13 
41 29 12 41 28 13 42 29 12 
42 28 13 43 29 12 43 28 13 
44 29 12 44 28 13 45 29 13 
33 30 12 33 29 13 32 30 13 
34 30 12 34 29 13 35 30 12 
36 30 12 37 30 12 38 30 12 
39 30 12 40 30 12 41 30 12 
42 30 12 43 30 12 44 30 12 
45 29 13 45 30 12 46 30 12 
46 29 13 47 30 13 32 31 12 
32 30 13 31 31 13 33 31 12 
34 31 12 35 31 12 36 31 12 
37 31 12 38 31 12 41 31 12 
42 31 12 43 31 12 44 31 12 
45 31 12 46 31 12 47 30 13 
47 31 12 48 31 13 32 32 12 
31 32 13 33 32 12 34 32 12 
45 32 12 46 32 12 47 32 12 
48 31 13 48 32 12 49 32 13 
32 33 12 31 33 13 33 33 12 
34 33 12 46 33 12 47 33 12 
48 33 12 49 32 13 49 33 12 
50 33 13 32 34 12 31 34 13 
33 34 12 34 34 12 47 34 12 
48 34 12 49 34 12 50 34 13 
32 35 13 32 35 13 33 35 12 
48 35 12 49 35 12 50 34 13 
50 35 12 51 35 13 33 36 12 
32 36 13 48 36 12 49 36 12 
50 36 12 51 36 13 33 37 12 
32 37 13 48 37 12 49 37 12 
50 37 12 51 37 13 33 38 12 
32 38 13 48 38 12 49 38 12 
50 38 12 51 38 13 33 39 12 
32 39 13 49 39 12 50 39 12 
51 39 13 33 40 12 32 40 13 
49 40 12 50 40 12 51 40 13 
33 41 12 32 41 13 48 41 12 
49 41 12 50 41 12 51 41 13 
33 42 12 32 42 13 48 42 12 
49 42 12 50 42 12 51 42 13 
33 43 12 32 43 13 48 43 12 
49 43 12 50 43 12 51 43 13 
33 44 12 32 44 13 48 44 12 
49 44 12 50 44 12 51 44 13 
32 45 12 32 44 13 31 45 13 
33 45 12 34 45 12 47 45 12 
48 45 12 49 45 12 50 45 13 
50 45 13 32 46 12 31 46 13 
33 46 12 34 46 12 46 46 12 
47 46 12 48 46 12 49 46 12 
50 46 13 32 47 12 31 47 13 
33 47 12 34 47 12 45 47 12 
46 47 12 47 47 12 48 47 12 
49 47 13 49 47 13 32 48 12 
31 48 13 33 48 12 34 48 12 
35 48 12 36 48 12 37 48 12 
38 48 12 41 48 12 42 48 12 
43 48 12 44 48 12 45 48 12 
46 48 12 47 48 12 48 48 13 
48 48 13 32 49 13 32 49 13 
33 49 12 34 49 12 35 49 12 
36 49 12 37 49 12 38 49 12 
39 49 12 40 49 12 41 49 12 
42 49 12 43 49 12 44 49 12 
45 49 12 46 49 12 47 49 13 
47 49 13 33 50 13 34 50 13 
34 50 13 35 50 12 36 50 12 
37 50 12 38 50 12 39 50 12 
40 50 12 41 50 12 42 50 12 
43 50 12 44 50 12 45 50 13 
45 50 13 46 50 13 35 51 13 
36 51 13 37 51 13 38 51 13 
39 51 13 40 51 13 41 51 13 
42 51 13 43 51 13 44 51 13 
35 27 13 35 26 14 34 27 14 
36 27 13 36 26 14 37 27 13 
37 26 14 38 27 13 38 26 14 
39 27 13 39 26 14 40 27 13 
40 26 14 41 27 13 41 26 14 
42 27 13 42 26 14 43 27 13 
43 26 14 44 27 13 44 26 14 
45 27 14 33 28 13 33 27 14 
32 28 14 34 28 13 34 27 14 
35 28 13 36 28 13 37 28 13 
38 28 13 39 28 13 40 28 13 
41 28 13 42 28 13 43 28 13 
44 28 13 45 27 14 45 28 13 
46 28 13 46 27 14 47 28 14 
31 29 13 31 28 14 30 29 14 
32 29 13 32 28 14 33 29 13 
34 29 13 45 29 13 46 29 13 
47 28 14 47 29 13 48 29 13 
48 28 14 49 29 14 30 30 13 
30 29 14 29 30 14 31 30 13 
32 30 13 47 30 13 48 30 13 
49 29 14 49 30 13 50 30 14 
29 31 13 29 30 14 28 31 14 
30 31 13 31 31 13 48 31 13 
49 31 13 50 30 14 50 31 13 
51 31 14 29 32 13 28 32 14 
30 32 13 31 32 13 49 32 13 
50 32 13 51 32 14 29 33 13 
28 33 14 30 33 13 31 33 13 
50 33 13 51 32 14 51 33 13 
52 33 14 29 34 13 28 34 14 
30 34 13 31 34 13 50 34 13 
51 34 13 52 34 14 29 35 14 
29 35 14 30 35 13 31 35 13 
32 35 13 51 35 13 52 34 14 
52 35 13 53 35 14 30 36 14 
31 36 14 31 36 14 32 36 13 
51 36 13 52 36 13 53 36 14 
32 37 13 31 37 14 51 37 13 
52 37 13 53 37 14 32 38 13 
31 38 14 51 38 13 52 38 13 
53 38 14 32 39 13 31 39 14 
51 39 13 52 39 13 53 39 14 
32 40 13 31 40 14 51 40 13 
52 40 13 53 40 14 32 41 13 
31 41 14 51 41 13 52 41 13 
53 41 14 32 42 13 31 42 14 
51 42 13 52 42 13 53 42 14 
32 43 13 31 43 14 51 43 13 
52 43 13 53 43 14 30 44 13 
30 43 14 29 44 14 31 44 13 
31 43 14 32 44 13 51 44 13 
52 44 13 53 44 14 29 45 13 
29 44 14 28 45 14 30 45 13 
31 45 13 50 45 13 51 45 13 
52 45 14 52 45 14 29 46 13 
28 46 14 30 46 13 31 46 13 
50 46 13 51 46 13 52 46 14 
29 47 13 28 47 14 30 47 13 
31 47 13 49 47 13 50 47 13 
51 47 14 51 47 14 29 48 13 
28 48 14 30 48 13 31 48 13 
48 48 13 49 48 13 50 48 13 
51 48 14 29 49 14 29 49 14 
30 49 13 31 49 13 32 49 13 
47 49 13 48 49 13 49 49 13 
50 49 14 50 49 14 30 50 14 
30 50 14 31 50 13 32 50 13 
33 50 13 34 50 13 45 50 13 
46 50 13 47 50 13 48 50 13 
49 50 14 49 50 14 31 51 14 
32 51 14 32 51 14 33 51 13 
34 51 13 35 51 13 36 51 13 
37 51 13 38 51 13 39 51 13 
40 51 13 41 51 13 42 51 13 
43 51 13 44 51 13 45 51 13 
46 51 13 47 51 14 47 51 14 
48 51 14 33 52 14 34 52 14 
34 52 14 35 52 13 36 52 13 
37 52 13 38 52 13 39 52 13 
40 52 13 41 52 13 42 52 13 
43 52 13 44 52 13 45 52 14 
45 52 14 46 52 14 35 53 14 
36 53 14 37 53 14 38 53 14 
39 53 14 40 53 14 41 53 14 
42 53 14 43 53 14 44 53 14 
35 25 14 35 24 15 34 25 15 
36 25 14 36 24 15 37 25 14 
37 24 15 38 25 14 38 24 15 
39 25 14 39 24 15 40 25 14 
40 24 15 41 25 14 41 24 15 
42 25 14 42 24 15 43 25 14 
43 24 15 44 25 14 44 24 15 
45 25 15 33 26 14 33 25 15 
32 26 15 34 26 14 34 25 15 
35 26 14 36 26 14 37 26 14 
38 26 14 39 26 14 40 26 14 
41 26 14 42 26 14 43 26 14 
44 26 14 45 25 15 45 26 14 
46 26 14 46 25 15 47 26 15 
31 27 14 31 26 15 30 27 15 
32 27 14 32 26 15 33 27 14 
34 27 14 45 27 14 46 27 14 
47 26 15 47 27 14 48 27 14 
48 26 15 49 27 15 30 28 14 
30 27 15 29 28 15 31 28 14 
32 28 14 47 28 14 48 28 14 
49 27 15 49 28 14 50 28 15 
29 29 14 29 28 15 28 29 15 
30 29 14 49 29 14 50 28 15 
50 29 14 51 29 15 28 30 14 
28 29 15 27 30 15 29 30 14 
50 30 14 51 29 15 51 30 14 
52 30 15 27 31 14 27 30 15 
26 31 15 28 31 14 51 31 14 
52 30 15 52 31 14 53 31 15 
27 32 14 26 32 15 28 32 14 
51 32 14 52 32 14 53 32 15 
27 33 14 26 33 15 28 33 14 
52 33 14 53 32 15 53 33 14 
54 33 15 27 34 14 26 34 15 
28 34 14 52 34 14 53 34 14 
54 34 15 27 35 15 27 35 15 
28 35 14 29 35 14 53 35 14 
54 34 15 54 35 14 55 35 15 
28 36 15 29 36 15 30 36 14 
29 36 15 31 36 14 53 36 14 
54 36 14 55 36 15 30 37 15 
31 37 15 31 37 15 53 37 14 
54 37 14 55 37 15 31 38 15 
53 38 14 54 38 14 55 38 15 
31 39 15 53 39 14 54 39 14 
55 39 15 31 40 15 53 40 14 
54 40 14 55 40 15 31 41 15 
53 41 14 54 41 14 55 41 15 
31 42 15 53 42 14 54 42 14 
55 42 15 30 43 14 30 42 15 
29 43 15 31 43 14 31 42 15 
53 43 14 54 43 14 55 43 15 
28 44 14 28 43 15 27 44 15 
29 44 14 29 43 15 53 44 14 
54 44 14 55 44 15 27 45 14 
27 44 15 26 45 15 28 45 14 
52 45 14 53 45 14 54 45 15 
54 45 15 27 46 14 26 46 15 
28 46 14 52 46 14 53 46 14 
54 46 15 27 47 14 26 47 15 
28 47 14 51 47 14 52 47 14 
53 47 15 53 47 15 27 48 14 
26 48 15 28 48 14 51 48 14 
52 48 14 53 48 15 27 49 15 
27 49 15 28 49 14 29 49 14 
50 49 14 51 49 14 52 49 15 
52 49 15 28 50 15 28 50 15 
29 50 14 30 50 14 49 50 14 
50 50 14 51 50 15 51 50 15 
29 51 15 29 51 15 30 51 14 
31 51 14 32 51 14 47 51 14 
48 51 14 49 51 14 50 51 15 
50 51 15 30 52 15 30 52 15 
31 52 14 32 52 14 33 52 14 
34 52 14 45 52 14 46 52 14 
47 52 14 48 52 14 49 52 15 
49 52 15 31 53 15 32 53 15 
32 53 15 33 53 14 34 53 14 
35 53 14 36 53 14 37 53 14 
38 53 14 39 53 14 40 53 14 
41 53 14 42 53 14 43 53 14 
44 53 14 45 53 14 46 53 14 
47 53 15 47 53 15 48 53 15 
[...]
POINT_DATA 16864
SCALARS scalars float
LOOKUP_TABLE default
2,43601e+11 4,57174e-41 2,43601e+11 4,57174e-41 1,31622e-35 0 1,31622e-35 0 38 
44 68 39 44 68 40 44 68 41 
44 68 2,836e-40 0 9,45484e-41 0 2,43602e+11 4,57174e-41 2,43602e+11 
4,57174e-41 1,31623e-35 0 1,31623e-35 0 0 0 0 0 
0 0 0 0 0 0 0 0 0 
0 0 0 0 0 0 0 0 0 
0 0 0 0 0 0 0 0 0 
0 0 0 0 0 0 0 0 0 
0 0 0 0 0 0 0 0 0 
0 0 0 0 0 0 0 0 0 
0 0 0 0 0 0 0 0 0 
0 0 0 0 0 0 0 0 0 
0 0 0 0 0 0 0 0 0 
0 0 0 0 0 0 0 0 0 
0 0 0 0 0 0 0 0 0 
0 0 0 0 0 0 0 0 0 
0 0 0 0 0 0 0 0 0 
0 0 0 0 0 0 0 0 0 
0 0 0 0 0 0 0 0 0 
0 0 0 0 0 0 0 0 0 
0 0 0 0 0 0 0 0 0 
0 0 0 0 0 0 0 0 0 
0 0 0 0 0 0 0 0 0 
0 0 0 0 0 0 0 0 0 
0 0 0 0 0 0 0 0 0 
0 0 0 0 0 0 0 0 0 
0 0 0 0 0 0 0 0 0 
0 0 0 0 0 0 0 0 0 
0 0 0 0 0 0 0 0 0 
0 0 0 0 0 0 0 0 0 
0 0 0 0 0 0 0 0 0 
0 0 0 0 0 0 0 0 0 
0 0 0 0 0 0 0 0 0 
0 0 0 0 0 0 0 0 0 
0 0 0 0 0 0 0 0 0 
0 0 0 0 0 0 0 0 0 
0 0 0 0 0 0 0 0 0 
0 0 0 0 0 0 0 0 0 
0 0 0 0 0 0 0 0 0 
0 0 0 0 0 0 0 0 0 
0 0 0 0 0 0 0 0 0 
0 0 0 0 0 0 0 0 0 
0 0 0 0 0 0 0 0 0 
0 0 0 0 0 0 0 0 0 
0 0 0 0 0 0 0 0 0 
0 0 0 0 0 0 0 0 0 
0 0 0 0 0 0 0 0 0 
0 0 0 0 0 0 0 0 0 
0 0 0 0 0 0 0 0 0 
0 0 0 0 0 0 0 0 0 
0 0 0 0 0 0 0 0 0 
0 0 0 0 0 0 0 0 0 
0 0 0 0 0 0 0 0 0 
0 0 0 0 0 0 0 0 0 
0 0 0 0 0 0 0 0 0 
0 0 0 0 0 0 0 0 0 
0 0 0 0 0 0 0 0 0 
0 0 0 0 0 0 0 0 0 
0 0 0 0 0 0 0 0 0 
0 0 0 0 0 0 0 0 0 
0 0 0 0 0 0 0 0 0 
0 0 0 0 0 0 0 0 0 
0 0 0 0 0 0 0 0 0 
0 0 0 0 0 0 0 0 0 
0 0 0 0 0 0 0 0 0 
0 0 0 0 0 0 0 0 0 
0 0 0 0 0 0 0 0 0 
0 0 0 0 0 0 0 0 0 
0 0 0 0 0 0 0 0 0 
0 0 0 0 0 0 0 0 0 
0 0 0 0 0 0 0 0 0 
0 0 0 0 0 0 0 0 0 
0 0 0 0 0 0 0 0 0 
0 0 0 0 0 0 0 0 0 
0 0 0 0 0 0 0 0 0 
0 0 0 0 0 0 0 0 0 
0 0 0 0 0 0 0 0 0 
0 0 0 0 0 0 0 0 0 
0 0 0 0 0 0 0 0 0 
0 0 0 0 0 0 0 0 0 
0 0 0 0 0 0 0 0 0 
0 0 0 0 0 0 0 0 0 
0 0 0 0 0 0 0 0 0 
0 0 0 0 0 0 0 0 0 
0 0 0 0 0 0 0 0 0 
0 0 0 0 0 0 0 0 0 
0 0 0 0 0 0 0 0 0 
0 0 0 0 0 0 0 0 0 
0 0 0 0 0 0 0 0 0 
0 0 0 0 0 0 0 0 0 
0 0 0 0 0 0 0 0 0 
0 0 0 0 0 0 0 0 0 
0 0 0 0 0 0 0 0 0 
0 0 0 0 0 0 0 0 0 
0 0 0 0 0 0 0 0 0 
0 0 0 0 0 0 0 0 0 
0 0 0 0 0 0 0 0 0 
0 0 0 0 0 0 0 0 0 
0 0 0 0 0 0 0 0 0 
0 0 0 0 0 0 0 0 0 
0 0 0 0 0 0 0 0 0 
0 0 0 0 0 0 0 0 0 
0 0 0 0 0 0 0 0 0 
0 0 0 0 0 0 0 0 0 
0 0 0 0 0 0 0 0 0 
0 0 0 0 0 0 0 0 0 
0 0 0 0 0 0 0 0 0 
0 0 0 0 0 0 0 0 0 
0 0 0 0 0 0 0 0 0 
0 0 0 0 0 0 0 0 0 
0 0 0 0 0 0 0 0 0 
0 0 0 0 0 0 0 0 0 
0 0 0 0 0 0 0 0 0 
0 0 0 0 0 0 0 0 0 
0 0 0 0 0 0 0 0 0 
0 0 0 0 0 0 0 0 0 
0 0 0 0 0 0 0 0 0 
0 0 0 0 0 0 0 0 0 
0 0 0 0 0 0 0 0 0 
0 0 0 0 0 0 0 0 0 
0 0 0 0 0 0 0 0 0 
0 0 0 0 0 0 0 0 0 
0 0 0 0 0 0 0 0 0 
0 0 0 0 0 0 0 0 0 
0 0 0 0 0 0 0 0 0 
0 0 0 0 0 0 0 0 0 
0 0 0 0 0 0 0 0 0 
0 0 0 0 0 0 0 0 0 
0 0 0 0 0 0 0 0 0 
0 0 0 0 0 0 0 0 0 
0 0 0 0 0 0 0 0 0 
0 0 0 0 0 0 0 0 0 
0 0 0 0 0 0 0 0 0 
0 0 0 0 0 0 0 0 0 
0 0 0 0 0 0 0 0 0 
0 0 0 0 0 0 0 0 0 
0 0 0 0 0 0 0 0 0 
0 0 0 0 0 0 0 0 0 
0 0 0 0 0 0 0 0 0 
0 0 0 0 0 0 0 0 0 
0 0 0 0 0 0 0 0 0 
0 0 0 0 0 0 0 0 0 
0 0 0 0 0 0 0 0 0 
0 0 0 0 0 0 0 0 0 
0 0 0 0 0 0 0 0 0 
0 0 0 0 0 0 0 0 0 
0 0 0 0 0 0 0 0 0 
0 0 0 0 0 0 0 0 0 
0 0 0 0 0 0 0 0 0 
0 0 0 0 0 0 0 0 0 
0 0 0 0 0 0 0 0 0 
0 0 0 0 0 0 0 0 0 
0 0 0 0 0 0 0 0 0 
0 0 0 0 0 0 0 0 0 
0 0 0 0 0 0 0 0 0 
0 0 0 0 0 0 0 0 0 
0 0 0 0 0 0 0 0 0 
0 0 0 0 0 0 0 0 0 
0 0 0 0 0 0 0 0 0 
0 0 0 0 0 0 0 0 0 
0 0 0 0 0 0 0 0 0 
0 0 0 0 0 0 0 0 0 
0 0 0 0 0 0 0 0 0 
0 0 0 0 0 0 0 0 0 
0 0 0 0 0 0 0 0 0 
0 0 0 0 0 0 0 0 0 
0 0 0 0 0 0 0 0 0 
0 0 0 0 0 0 0 0 0 
0 0 0 0 0 0 0 0 0 
0 0 0 0 0 0 0 0 0 
0 0 0 0 0 0 0 0 0 
0 0 0 0 0 0 0 0 0 
0 0 0 0 0 0 0 0 0 
0 0 0 0 0 0 0 0 0 
0 0 0 0 0 0 0 0 0 
0 0 0 0 0 0 0 0 0 
0 0 0 0 0 0 0 0 0 
0 0 0 0 0 0 0 0 0 
0 0 0 0 0 0 0 0 0 
0 0 0 0 0 0 0 0 0 
0 0 0 0 0 0 0 0 0 
0 0 0 0 0 0 0 0 0 
0 0 0 0 0 0 0 0 0 
0 0 0 0 0 0 0 0 0 
0 0 0 0 0 0 0 0 0 
0 0 0 0 0 0 0 0 0 
0 0 0 0 0 0 0 0 0 
0 0 0 0 0 0 0 0 0 
0 0 0 0 0 0 0 0 0 
0 0 0 0 0 0 0 0 0 
0 0 0 0 0 0 0 0 0 
0 0 0 0 0 0 0 0 0 
0 0 0 0 0 0 0 0 0 
0 0 0 0 0 0 0 0 0 
0 0 0 0 0 0 0 0 0 
0 0 0 0 0 0 0 0 0 
0 0 0 0 0 0 0 0 0 
0 0 0 0 0 0 0 0 0 
0 0 0 0 0 0 0 0 0 
0 0 0 0 0 0 0 0 0 
0 0 0 0 0 0 0 0 0 
0 0 0 0 0 0 0 0 0 
0 0 0 0 0 0 0 0 0 
0 0 0 0 0 0 0 0 0 
0 0 0 0 0 0 0 0 0 
0 0 0 0 0 0 0 0 0 
0 0 0 0 0 0 0 0 0 
0 0 0 0 0 0 0 0 0 
0 0 0 0 0 0 0 0 0 
0 0 0 0 0 0 0 0 0 
0 0 0 0 0 0 0 0 0 
0 0 0 0 0 0 0 0 0 
0 0 0 0 0 0 0 0 0 
0 0 0 0 0 0 0 0 0 
0 0 0 0 0 0 0 0 0 
0 0 0 0 0 0 0 0 0 
0 0 0 0 0 0 0 0 0 
0 0 0 0 0 0 0 0 0 
0 0 0 0 0 0 0 0 0 
0 0 0 0 0 0 0 0 0 
0 0 0 0 0 0 0 0 0 
0 0 0 0 0 0 0 0 0 
0 0 0 0 0 0 0 0 0 
0 0 0 0 0 0 0 0 0 
0 0 0 0 0 0 0 0 0 
0 0 0 0 0 0 0 0 0 
0 0 0 0 0 0 0 0 0 
0 0 0 0 0 0 0 0 0 
0 0 0 0 0 0 0 0 0 
0 0 0 0 0 0 0 0 0 
0 0 0 0 0 0 0 0 0 
0 0 0 0 0 0 0 0 0 
0 0 0 0 0 0 0 0 0 
0 0 0 0 0 0 0 0 0 
0 0 0 0 0 0 0 0 0 
0 0 0 0 0 0 0 0 0 
0 0 0 0 0 0 0 0 0 
0 0 0 0 0 0 0 0 0 
0 0 0 0 0 0 0 0 0 
0 0 0 0 0 0 0 0 0 
0 0 0 0 0 0 0 0 0 
0 0 0 0 0 0 0 0 0 
0 0 0 0 0 0 0 0 0 
0 0 0 0 0 0 0 0 0 
0 0 0 0 0 0 0 0 0 
0 0 0 0 0 0 0 0 0 
0 0 0 0 0 0 0 0 0 
0 0 0 0 0 0 0 0 0 
0 0 0 0 0 0 0 0 0 
0 0 0 0 0 0 0 0 0 
0 0 0 0 0 0 0 0 0 
0 0 0 0 0 0 0 0 0 
0 0 0 0 0 0 0 0 0 
0 0 0 0 0 0 0 0 0 
0 0 0 0 0 0 0 0 0 
0 0 0 0 0 0 0 0 0 
0 0 0 0 0 0 0 0 0 
0 0 0 0 0 0 0 0 0 
0 0 0 0 0 0 0 0 0 
0 0 0 0 0 0 0 0 0 
0 0 0 0 0 0 0 0 0 
0 0 0 0 0 0 0 0 0 
0 0 0 0 0 0 0 0 0 
0 0 0 0 0 0 0 0 0 
0 0 0 0 0 0 0 0 0 
0 0 0 0 0 0 0 0 0 
0 0 0 0 0 0 0 0 0 
0 0 0 0 0 0 0 0 0 
0 0 0 0 0 0 0 0 0 
0 0 0 0 0 0 0 0 0 
0 0 0 0 0 0 0 0 0 
0 0 0 0 0 0 0 0 0 
0 0 0 0 0 0 0 0 0 
0 0 0 0 0 0 0 0 0 
0 0 0 0 0 0 0 0 0 
0 0 0 0 0 0 0 0 0 
0 0 0 0 0 0 0 0 0 
0 0 0 0 0 0 0 0 0 
0 0 0 0 0 0 0 0 0 
0 0 0 0 0 0 0 0 0 
0 0 0 0 0 0 0 0 0 
0 0 0 0 0 0 0 0 0 
0 0 0 0 0 0 0 0 0 
0 0 0 0 0 0 0 0 0 
0 0 0 0 0 0 0 0 0 
0 0 0 0 0 0 0 0 0 
0 0 0 0 0 0 0 0 0 
0 0 0 0 0 0 0 0 0 
0 0 0 0 0 0 0 0 0 
0 0 0 0 0 0 0 0 0 
0 0 0 0 0 0 0 0 0 
0 0 0 0 0 0 0 0 0 
0 0 0 0 0 0 0 0 0 
0 0 0 0 0 0 0 0 0 
0 0 0 0 0 0 0 0 0 
0 0 0 0 0 0 0 0 0 
0 0 0 0 0 0 0 0 0 
0 0 0 0 0 0 0 0 0 
0 0 0 0 0 0 0 0 0 
0 0 0 0 0 0 0 0 0 
0 0 0 0 0 0 0 0 0 
0 0 0 0 0 0 0 0 0 
0 0 0 0 0 0 0 0 0 
0 0 0 0 0 0 0 0 0 
0 0 0 0 0 0 0 0 0 
0 0 0 0 0 0 0 0 0 
0 0 0 0 0 0 0 0 0 
0 0 0 0 0 0 0 0 0 
0 0 0 0 0 0 0 0 0 
0 0 0 0 0 0 0 0 0 
0 0 0 0 0 0 0 0 0 
0 0 0 0 0 0 0 0 0 
0 0 0 0 0 0 0 0 0 
0 0 0 0 0 0 0 0 0 
0 0 0 0 0 0 0 0 0 
0 0 0 0 0 0 0 0 0 
0 0 0 0 0 0 0 0 0 
0 0 0 0 0 0 0 0 0 
0 0 0 0 0 0 0 0 0 
0 0 0 0 0 0 0 0 0 
0 0 0 0 0 0 0 0 0 
0 0 0 0 0 0 0 0 0 
0 0 0 0 0 0 0 0 0 
0 0 0 0 0 0 0 0 0 
0 0 0 0 0 0 0 0 0 
0 0 0 0 0 0 0 0 0 
0 0 0 0 0 0 0 0 0 
0 0 0 0 0 0 0 0 0 
0 0 0 0 0 0 0 0 0 
0 0 0 0 0 0 0 0 0 
0 0 0 0 0 0 0 0 0 
0 0 0 0 0 0 0 0 0 
0 0 0 0 0 0 0 0 0 
0 0 0 0 0 0 0 0 0 
0 0 0 0 0 0 0 0 0 
0 0 0 0 0 0 0 0 0 
0 0 0 0 0 0 0 0 0 
0 0 0 0 0 0 0 0 0 
0 0 0 0 0 0 0 0 0 
0 0 0 0 0 0 0 0 0 
0 0 0 0 0 0 0 0 0 
0 0 0 0 0 0 0 0 0 
0 0 0 0 0 0 0 0 0 
0 0 0 0 0 0 0 0 0 
0 0 0 0 0 0 0 0 0 
0 0 0 0 0 0 0 0 0 
0 0 0 0 0 0 0 0 0 
0 0 0 0 0 0 0 0 0 
0 0 0 0 0 0 0 0 0 
0 0 0 0 0 0 0 0 0 
0 0 0 0 0 0 0 0 0 
0 0 0 0 0 0 0 0 0 
0 0 0 0 0 0 0 0 0 
0 0 0 0 0 0 0 0 0 
0 0 0 0 0 0 0 0 0 
0 0 0 0 0 0 0 0 0 
0 0 0 0 0 0 0 0 0 
0 0 0 0 0 0 0 0 0 
0 0 0 0 0 0 0 0 0 
0 0 0 0 0 0 0 0 0 
0 0 0 0 0 0 0 0 0 
0 0 0 0 0 0 0 0 0 
0 0 0 0 0 0 0 0 0 
0 0 0 0 0 0 0 0 0 
0 0 0 0 0 0 0 0 0 
0 0 0 0 0 0 0 0 0 
0 0 0 0 0 0 0 0 0 
0 0 0 0 0 0 0 0 0 
0 0 0 0 0 0 0 0 0 
0 0 0 0 0 0 0 0 0 
0 0 0 0 0 0 0 0 0 
0 0 0 0 0 0 0 0 0 
0 0 0 0 0 0 0 0 0 
0 0 0 0 0 0 0 0 0 
0 0 0 0 0 0 0 0 0 
0 0 0 0 0 0 0 0 0 
0 0 0 0 0 0 0 0 0 
0 0 0 0 0 0 0 0 0 
0 0 0 0 0 0 0 0 0 
0 0 0 0 0 0 0 0 0 
0 0 0 0 0 0 0 0 0 
0 0 0 0 0 0 0 0 0 
0 0 0 0 0 0 0 0 0 
0 0 0 0 0 0 0 0 0 
0 0 0 0 0 0 0 0 0 
0 0 0 0 0 0 0 0 0 
0 0 0 0 0 0 0 0 0 
0 0 0 0 0 0 0 0 0 
0 0 0 0 0 0 0 0 0 
0 0 0 0 0 0 0 0 0 
0 0 0 0 0 0 0 0 0 
0 0 0 0 0 0 0 0 0 
0 0 0 0 0 0 0 0 0 
0 0 0 0 0 0 0 0 0 
0 0 0 0 0 0 0 0 0 
0 0 0 0 0 0 0 0 0 
0 0 0 0 0 0 0 0 0 
0 0 0 0 0 0 0 0 0 
0 0 0 0 0 0 0 0 0 
0 0 0 0 0 0 0 0 0 
0 0 0 0 0 0 0 0 0 
0 0 0 0 0 0 0 0 0 
0 0 0 0 0 0 0 0 0 
0 0 0 0 0 0 0 0 0 
0 0 0 0 0 0 0 0 0 
0 0 0 0 0 0 0 0 0 
0 0 0 0 0 0 0 0 0 
0 0 0 0 0 0 0 0 0 
0 0 0 0 0 0 0 0 0 
0 0 0 0 0 0 0 0 0 
0 0 0 0 0 0 0 0 0 
0 0 0 0 0 0 0 0 0 
0 0 0 0 0 0 0 1,875 0 
1,875 0 0 0 0 0 0 0 0 
0 0 0 0 0 0 0 0 0 
0 0 0 0 0 0 0 0 0 
0 0 0 0 0 0 0 0 0 
0 0 0 0 0 0 0 0 0 
0 0 0 0 0 0 0 0 0 
0 0 0 0 0 0 0 0 0 
0 0 0 0 0 0 0 0 0 
0 0 0 0 0 0 0 0 0 
0 0 0 0 0 0 0 0 0 
0 0 0 0 0 0 0 0 0 
0 0 0 0 0 0 0 0 0 
0 0 0 0 0 0 0 0 0 
0 0 0 0 0 0 0 0 0 
0 0 0 0 0 0 0 0 0 
0 0 0 0 0 0 0 0 0 
1,875 0 1,875 0 1,875 0 1,875 0 1,875 
0 1,875 0 1,875 0 1,875 0 1,875 0 
1,875 0 1,875 0 1,875 0 1,875 0 1,875 
0 1,875 0 1,875 0 0 0 0 0 
0 0 0 0 0 0 0 0 0 
0 0 0 0 0 0 0 0 0 
0 0 0 0 0 0 0 0 0 
0 0 0 0 0 0 0 0 0 
0 0 0 0 0 0 0 0 0 
0 0 0 0 0 0 0 0 0 
0 0 0 0 0 0 0 0 0 
0 0 0 0 0 0 0 0 0 
0 0 0 0 0 0 0 0 0 
0 0 0 0 0 0 0 0 0 
0 0 0 0 0 0 0 0 0 
0 0 0 0 0 0 0 0 0 
0 0 0 0 0 0 0 0 0 
0 1,875 0 1,875 0 1,875 0 1,875 0 
1,875 0 1,875 0 1,875 0 1,875 0 1,875 
0 1,875 0 1,875 0 1,875 0 1,875 0 
1,875 0 1,875 0 1,875 0 1,875 0 1,875 
0 1,875 0 1,875 0 1,875 0 1,875 0 
0 0 0 0 0 0 0 0 0 
0 0 0 0 0 0 0 0 0 
0 0 0 0 0 0 0 0 0 
0 0 0 0 0 0 0 0 0 
0 0 0 0 0 0 0 0 0 
0 0 0 0 0 0 0 0 0 
0 0 0 0 0 0 0 0 0 
0 0 0 0 0 0 0 0 0 
0 0 0 0 0 0 0 0 0 
0 0 0 0 0 0 0 0 0 
0 0 0 0 0 0 0 0 0 
0 0 0 0 0 0 0 0 0 
0 0 0 0 1,875 0 1,875 0 1,875 
0 1,875 0 1,875 0 1,875 0 1,875 0 
1,875 0 1,875 0 1,875 0 1,875 0 1,875 
0 1,875 0 1,875 0 1,875 0 1,875 0 
1,875 0 1,875 0 1,875 0 1,875 0 1,875 
0 1,875 0 1,875 0 1,875 0 1,875 0 
1,875 0 0 0 0 0 0 0 0 
0 0 0 0 0 0 0 0 0 
0 0 0 0 0 0 0 0 0 
0 0 0 0 0 0 0 0 0 
0 0 0 0 0 0 0 0 0 
0 0 0 0 0 0 0 0 0 
0 0 0 0 0 0 0 0 0 
0 0 0 0 0 0 0 0 0 
0 0 0 0 0 0 0 0 0 
0 0 0 0 0 0 0 0 0 
0 0 0 0 0 0 0 0 0 
0 0 0 0 0 0 0 0 0 
1,875 0 1,875 0 1,875 0 1,875 0 1,875 
0 1,875 0 1,875 0 1,875 0 1,875 0 
1,875 0 1,875 0 1,875 0 1,875 0 0 
0 0 0 1,875 0 1,875 0 1,875 0 
1,875 0 1,875 0 1,875 0 1,875 0 1,875 
0 1,875 0 1,875 0 1,875 0 1,875 0 
1,875 0 0 0 0 0 0 0 0 
0 0 0 0 0 0 0 0 0 
0 0 0 0 0 0 0 0 0 
0 0 0 0 0 0 0 0 0 
0 0 0 0 0 0 0 0 0 
0 0 0 0 0 0 0 0 0 
0 0 0 0 0 0 0 0 0 
0 0 0 0 0 0 0 0 0 
0 0 0 0 0 0 0 0 0 
0 0 0 0 0 0 0 0 0 
0 0 0 0 0 0 0 0 0 
0 0 0 1,875 0 1,875 0 1,875 0 
1,875 0 1,875 0 1,875 0 1,875 0 1,875 
0 1,875 0 0 0 0 0 0 0 
0 0 0 0 0 0 0 0 0 
0 0 0 0 0 0 0 0 0 
0 0 0 0 1,875 0 1,875 0 1,875 
0 1,875 0 1,875 0 1,875 0 1,875 0 
1,875 0 1,875 0 0 0 0 0 0 
0 0 0 0 0 0 0 0 0 
0 0 0 0 0 0 0 0 0 
0 0 0 0 0 0 0 0 0 
0 0 0 0 0 0 0 0 0 
0 0 0 0 0 0 0 0 0 
0 0 0 0 0 0 0 0 0 
0 0 0 0 0 0 0 0 0 
0 0 0 0 0 0 0 0 0 
0 0 0 0 0 0 0 0 0 
0 0 0 0 0 0 0 0 1,875 
0 1,875 0 1,875 0 1,875 0 1,875 0 
1,875 0 1,875 0 0 0 0 0 0 
0 0 0 0 0 0 0 0 0 
0 0 0 0 0 0 0 0 0 
0 0 0 0 0 0 0 0 0 
0 0 0 0 0 0 0 0 1,875 
0 1,875 0 1,875 6,83175e-41 0 2,43601e+11 4,57174e-41 1,34153e-35 
0 1,34153e-35 0 1,34153e-35 0 0 0 0 0 
0 0 0 0 0 0 0 0 0 
0 2,06654e-40 0 2,43601e+11 4,57174e-41 2,43601e+11 4,57174e-41 1,31893e-35 0 
1,31893e-35 0 4,2039e-45 0 0 0 4,2039e-45 0 5,60519e-45 
0 4,2039e-45 0 2,8026e-45 0 4,2039e-45 0 0 0 
4,2039e-45 0 5,60519e-45 0 7,00649e-45 0 8,40779e-45 0 4,2039e-45 
0 4,2039e-45 0 7,00649e-45 0 5,60519e-45 0 4,2039e-45 0 
8,40779e-45 0 9,80909e-45 0 1,12104e-44 0 4,2039e-45 0 7,00649e-45 
0 9,80909e-45 0 8,40779e-45 0 4,2039e-45 0 9,80909e-45 0 
1,26117e-44 0 1,12104e-44 0 4,2039e-45 0 1,4013e-44 0 1,54143e-44 
0 1,68156e-44 0 4,2039e-45 0 1,4013e-45 0 1,4013e-44 0 
1,68156e-44 0 4,2039e-45 0 1,4013e-45 0 0 0 1,4013e-44 
0 4,2039e-45 0 0 0 1,82169e-44 0 1,4013e-44 0 
4,2039e-45 0 5,60519e-45 0 1,96182e-44 0 0 0 4,2039e-45 
0 1,96182e-44 0 1,82169e-44 0 0 0 4,2039e-45 0 
8,40779e-45 0 2,10195e-44 0 5,60519e-45 0 4,2039e-45 0 2,10195e-44 
0 1,96182e-44 0 5,60519e-45 0 4,2039e-45 0 1,12104e-44 0 
2,24208e-44 0 8,40779e-45 0 4,2039e-45 0 2,24208e-44 0 2,10195e-44 
0 8,40779e-45 0 4,2039e-45 0 2,38221e-44 0 1,12104e-44 0 
1,26117e-44 0 4,2039e-45 0 2,38221e-44 0 2,52234e-44 0 1,12104e-44 
0 4,2039e-45 0 2,52234e-44 0 2,24208e-44 0 1,12104e-44 0 
4,2039e-45 0 2,52234e-44 0 2,66247e-44 0 2,8026e-44 0 4,2039e-45 
0 2,38221e-44 0 2,66247e-44 0 2,52234e-44 0 4,2039e-45 0 
2,66247e-44 0 2,94273e-44 0 2,8026e-44 0 4,2039e-45 0 3,08286e-44 
0 1,54143e-44 0 1,4013e-44 0 4,2039e-45 0 3,22299e-44 0 
1,54143e-44 0 3,08286e-44 0 4,2039e-45 0 1,82169e-44 0 3,36312e-44 
0 1,4013e-44 0 4,2039e-45 0 3,36312e-44 0 3,08286e-44 0 
1,4013e-44 0 4,2039e-45 0 1,96182e-44 0 3,50325e-44 0 1,82169e-44 
0 4,2039e-45 0 3,50325e-44 0 3,36312e-44 0 1,82169e-44 0 
4,2039e-45 0 2,10195e-44 0 3,64338e-44 0 1,96182e-44 0 4,2039e-45 
0 3,64338e-44 0 3,50325e-44 0 1,96182e-44 0 4,2039e-45 0 
2,24208e-44 0 3,78351e-44 0 2,10195e-44 0 4,2039e-45 0 3,78351e-44 
0 3,64338e-44 0 2,10195e-44 0 4,2039e-45 0 2,52234e-44 0 
3,92364e-44 0 2,24208e-44 0 4,2039e-45 0 3,92364e-44 0 3,78351e-44 
0 2,24208e-44 0 4,2039e-45 0 2,8026e-44 0 4,06377e-44 0 
2,52234e-44 0 4,2039e-45 0 4,06377e-44 0 3,92364e-44 0 2,52234e-44 
0 4,2039e-45 0 4,2039e-44 0 2,8026e-44 0 2,94273e-44 0 
4,2039e-45 0 4,06377e-44 0 2,8026e-44 0 4,2039e-44 0 4,2039e-45 
0 4,34403e-44 0 3,22299e-44 0 3,08286e-44 0 4,2039e-45 0 
4,48416e-44 0 3,22299e-44 0 4,34403e-44 0 4,2039e-45 0 3,36312e-44 
0 4,62428e-44 0 3,08286e-44 0 4,2039e-45 0 4,62428e-44 0 
4,34403e-44 0 3,08286e-44 0 4,2039e-45 0 3,50325e-44 0 4,76441e-44 
0 3,36312e-44 0 4,2039e-45 0 4,76441e-44 0 4,62428e-44 0 
3,36312e-44 0 4,2039e-45 0 3,64338e-44 0 4,90454e-44 0 3,50325e-44 
0 4,2039e-45 0 4,90454e-44 0 4,76441e-44 0 3,50325e-44 0 
4,2039e-45 0 3,78351e-44 0 5,04467e-44 0 3,64338e-44 0 4,2039e-45 
0 5,04467e-44 0 4,90454e-44 0 3,64338e-44 0 4,2039e-45 0 
3,92364e-44 0 5,1848e-44 0 3,78351e-44 0 4,2039e-45 0 5,1848e-44 
0 5,04467e-44 0 3,78351e-44 0 4,2039e-45 0 4,06377e-44 0 
5,32493e-44 0 3,92364e-44 0 4,2039e-45 0 5,32493e-44 0 5,1848e-44 
0 3,92364e-44 0 4,2039e-45 0 5,46506e-44 0 4,06377e-44 0 
4,2039e-44 0 4,2039e-45 0 5,46506e-44 0 5,60519e-44 0 4,06377e-44 
0 4,2039e-45 0 5,60519e-44 0 5,32493e-44 0 4,06377e-44 0 
4,2039e-45 0 5,46506e-44 0 5,74532e-44 0 5,60519e-44 0 4,2039e-45 
0 5,88545e-44 0 4,48416e-44 0 4,34403e-44 0 4,2039e-45 0 
6,02558e-44 0 4,48416e-44 0 5,88545e-44 0 4,2039e-45 0 4,62428e-44 
0 6,16571e-44 0 4,34403e-44 0 4,2039e-45 0 6,16571e-44 0 
5,88545e-44 0 4,34403e-44 0 4,2039e-45 0 4,76441e-44 0 6,30584e-44 
0 4,62428e-44 0 4,2039e-45 0 6,30584e-44 0 6,16571e-44 0 
4,62428e-44 0 4,2039e-45 0 4,90454e-44 0 6,44597e-44 0 4,76441e-44 
0 4,2039e-45 0 6,44597e-44 0 6,30584e-44 0 4,76441e-44 0 
4,2039e-45 0 5,04467e-44 0 6,5861e-44 0 4,90454e-44 0 4,2039e-45 
0 6,5861e-44 0 6,44597e-44 0 4,90454e-44 0 4,2039e-45 0 
5,1848e-44 0 6,72623e-44 0 5,04467e-44 0 4,2039e-45 0 6,72623e-44 
0 6,5861e-44 0 5,04467e-44 0 4,2039e-45 0 5,32493e-44 0 
6,86636e-44 0 5,1848e-44 0 4,2039e-45 0 6,86636e-44 0 6,72623e-44 
0 5,1848e-44 0 4,2039e-45 0 5,60519e-44 0 7,00649e-44 0 
5,32493e-44 0 4,2039e-45 0 7,00649e-44 0 6,86636e-44 0 5,32493e-44 
0 4,2039e-45 0 7,14662e-44 0 5,60519e-44 0 5,74532e-44 0 
4,2039e-45 0 7,00649e-44 0 5,60519e-44 0 7,14662e-44 0 4,2039e-45 
0 7,28675e-44 0 6,02558e-44 0 5,88545e-44 0 4,2039e-45 0 
7,42688e-44 0 6,02558e-44 0 7,28675e-44 0 4,2039e-45 0 6,16571e-44 
0 7,56701e-44 0 5,88545e-44 0 4,2039e-45 0 7,56701e-44 0 
7,28675e-44 0 5,88545e-44 0 4,2039e-45 0 6,30584e-44 0 7,70714e-44 
0 6,16571e-44 0 4,2039e-45 0 7,70714e-44 0 7,56701e-44 0 
6,16571e-44 0 4,2039e-45 0 6,44597e-44 0 7,84727e-44 0 6,30584e-44 
0 4,2039e-45 0 7,84727e-44 0 7,70714e-44 0 6,30584e-44 0 
4,2039e-45 0 6,5861e-44 0 7,9874e-44 0 6,44597e-44 0 4,2039e-45 
0 7,9874e-44 0 7,84727e-44 0 6,44597e-44 0 4,2039e-45 0 
6,72623e-44 0 8,12753e-44 0 6,5861e-44 0 4,2039e-45 0 8,12753e-44 
0 7,9874e-44 0 6,5861e-44 0 4,2039e-45 0 6,86636e-44 0 
8,26766e-44 0 6,72623e-44 0 4,2039e-45 0 8,26766e-44 0 8,12753e-44 
0 6,72623e-44 0 4,2039e-45 0 7,00649e-44 0 8,40779e-44 0 
6,86636e-44 0 4,2039e-45 0 8,40779e-44 0 8,26766e-44 0 6,86636e-44 
0 4,2039e-45 0 8,54792e-44 0 7,00649e-44 0 7,14662e-44 0 
4,2039e-45 0 8,40779e-44 0 7,00649e-44 0 8,54792e-44 0 4,2039e-45 
0 8,68805e-44 0 7,42688e-44 0 7,28675e-44 0 4,2039e-45 0 
8,82818e-44 0 7,42688e-44 0 8,68805e-44 0 4,2039e-45 0 7,56701e-44 
0 8,96831e-44 0 7,28675e-44 0 4,2039e-45 0 8,96831e-44 0 
8,68805e-44 0 7,28675e-44 0 4,2039e-45 0 7,70714e-44 0 9,10844e-44 
0 7,56701e-44 0 4,2039e-45 0 9,10844e-44 0 8,96831e-44 0 
7,56701e-44 0 4,2039e-45 0 7,84727e-44 0 9,24857e-44 0 7,70714e-44 
0 4,2039e-45 0 9,24857e-44 0 9,10844e-44 0 7,70714e-44 0 
4,2039e-45 0 7,9874e-44 0 9,3887e-44 0 7,84727e-44 0 4,2039e-45 
0 9,3887e-44 0 9,24857e-44 0 7,84727e-44 0 4,2039e-45 0 
8,12753e-44 0 9,52883e-44 0 7,9874e-44 0 4,2039e-45 0 9,52883e-44 
0 9,3887e-44 0 7,9874e-44 0 4,2039e-45 0 8,26766e-44 0 
9,66896e-44 0 8,12753e-44 0 4,2039e-45 0 9,66896e-44 0 9,52883e-44 
0 8,12753e-44 0 4,2039e-45 0 8,40779e-44 0 9,80909e-44 0 
8,26766e-44 0 4,2039e-45 0 9,80909e-44 0 9,66896e-44 0 8,26766e-44 
0 4,2039e-45 0 9,94922e-44 0 8,40779e-44 0 8,54792e-44 0 
4,2039e-45 0 9,80909e-44 0 8,40779e-44 0 9,94922e-44 0 4,2039e-45 
0 1,00893e-43 0 8,82818e-44 0 8,68805e-44 0 4,2039e-45 0 
1,02295e-43 0 8,82818e-44 0 1,00893e-43 0 4,2039e-45 0 8,96831e-44 
0 1,03696e-43 0 8,68805e-44 0 4,2039e-45 0 1,03696e-43 0 
1,00893e-43 0 8,68805e-44 0 4,2039e-45 0 9,10844e-44 0 1,05097e-43 
0 8,96831e-44 0 4,2039e-45 0 1,05097e-43 0 1,03696e-43 0 
8,96831e-44 0 4,2039e-45 0 9,24857e-44 0 1,06499e-43 0 9,10844e-44 
0 4,2039e-45 0 1,06499e-43 0 1,05097e-43 0 9,10844e-44 0 
4,2039e-45 0 9,3887e-44 0 1,079e-43 0 9,24857e-44 0 4,2039e-45 
0 1,079e-43 0 1,06499e-43 0 9,24857e-44 0 4,2039e-45 0 
9,52883e-44 0 1,09301e-43 0 9,3887e-44 0 4,2039e-45 0 1,09301e-43 
0 1,079e-43 0 9,3887e-44 0 4,2039e-45 0 9,66896e-44 0 
1,10703e-43 0 9,52883e-44 0 4,2039e-45 0 1,10703e-43 0 1,09301e-43 
0 9,52883e-44 0 4,2039e-45 0 1,12104e-43 0 9,80909e-44 0 
1,13505e-43 0 4,2039e-45 0 1,12104e-43 0 1,10703e-43 0 9,80909e-44 
0 4,2039e-45 0 1,10703e-43 0 9,66896e-44 0 9,80909e-44 0 
4,2039e-45 0 9,94922e-44 0 1,13505e-43 0 9,80909e-44 0 4,2039e-45 
0 1,14906e-43 0 1,02295e-43 0 1,00893e-43 0 4,2039e-45 0 
1,16308e-43 0 1,02295e-43 0 1,14906e-43 0 4,2039e-45 0 1,03696e-43 
0 1,17709e-43 0 1,00893e-43 0 4,2039e-45 0 1,17709e-43 0 
1,14906e-43 0 1,00893e-43 0 4,2039e-45 0 1,05097e-43 0 1,1911e-43 
0 1,03696e-43 0 4,2039e-45 0 1,1911e-43 0 1,17709e-43 0 
1,03696e-43 0 4,2039e-45 0 1,06499e-43 0 1,20512e-43 0 1,05097e-43 
0 4,2039e-45 0 1,20512e-43 0 1,1911e-43 0 1,05097e-43 0 
4,2039e-45 0 1,079e-43 0 1,21913e-43 0 1,06499e-43 0 4,2039e-45 
0 1,21913e-43 0 1,20512e-43 0 1,06499e-43 0 4,2039e-45 0 
1,09301e-43 0 1,23314e-43 0 1,079e-43 0 4,2039e-45 0 1,23314e-43 
0 1,21913e-43 0 1,079e-43 0 4,2039e-45 0 1,10703e-43 0 
1,24716e-43 0 1,09301e-43 0 4,2039e-45 0 1,24716e-43 0 1,23314e-43 
0 1,09301e-43 0 4,2039e-45 0 1,26117e-43 0 1,10703e-43 0 
1,12104e-43 0 4,2039e-45 0 1,24716e-43 0 1,10703e-43 0 1,26117e-43 
0 4,2039e-45 0 1,14906e-43 0 1,27518e-43 0 1,16308e-43 0 
4,2039e-45 0 1,27518e-43 0 1,28919e-43 0 1,30321e-43 0 4,2039e-45 
0 1,27518e-43 0 1,14906e-43 0 1,28919e-43 0 4,2039e-45 0 
1,14906e-43 0 1,17709e-43 0 1,28919e-43 0 4,2039e-45 0 1,1911e-43 
0 1,31722e-43 0 1,17709e-43 0 4,2039e-45 0 1,31722e-43 0 
1,28919e-43 0 1,17709e-43 0 4,2039e-45 0 1,20512e-43 0 1,33123e-43 
0 1,1911e-43 0 4,2039e-45 0 1,33123e-43 0 1,31722e-43 0 
1,1911e-43 0 4,2039e-45 0 1,21913e-43 0 1,34525e-43 0 1,20512e-43 
0 4,2039e-45 0 1,34525e-43 0 1,33123e-43 0 1,20512e-43 0 
4,2039e-45 0 1,35926e-43 0 1,23314e-43 0 1,37327e-43 0 4,2039e-45 
0 1,35926e-43 0 1,34525e-43 0 1,23314e-43 0 4,2039e-45 0 
1,34525e-43 0 1,21913e-43 0 1,23314e-43 0 4,2039e-45 0 1,24716e-43 
0 1,37327e-43 0 1,23314e-43 0 4,2039e-45 0 1,38729e-43 0 
1,37327e-43 0 1,24716e-43 0 4,2039e-45 0 1,26117e-43 0 1,38729e-43 
0 1,24716e-43 0 4,2039e-45 0 1,28919e-43 0 1,4013e-43 0 
1,30321e-43 0 4,2039e-45 0 1,31722e-43 0 1,4013e-43 0 1,28919e-43 
0 4,2039e-45 0 1,41531e-43 0 1,4013e-43 0 1,31722e-43 0 
4,2039e-45 0 1,33123e-43 0 1,41531e-43 0 1,31722e-43 0 4,2039e-45 
0 1,42932e-43 0 1,41531e-43 0 1,33123e-43 0 4,2039e-45 0 