# vtk DataFile Version 3.0
vtk output
ASCII
DATASET POLYDATA
POINTS 16768 float
37 33 11 37 33 11 37 33 11 
38 33 11 38 33 11 39 33 11 
39 33 11 40 33 11 40 33 11 
41 33 11 41 33 11 42 33 11 
42 33 11 42 33 11 36 34 11 
36 34 11 36 34 11 37 34 11 
38 34 11 39 34 11 40 34 11 
41 34 11 42 34 11 43 34 11 
43 34 11 43 34 11 35 35 11 
35 35 11 35 35 11 36 35 11 
37 35 11 38 35 11 39 35 11 
40 35 11 41 35 11 42 35 11 
43 35 11 44 35 11 44 35 11 
44 35 11 35 36 11 35 36 11 
36 36 11 37 36 11 38 36 11 
39 36 11 40 36 11 41 36 11 
42 36 11 43 36 11 44 36 11 
45 36 11 45 36 11 45 36 11 
35 37 11 35 37 11 36 37 11 
37 37 11 38 37 11 39 37 11 
40 37 11 41 37 11 42 37 11 
43 37 11 44 37 11 45 37 11 
46 37 11 46 37 11 46 37 11 
35 38 11 35 38 11 36 38 11 
37 38 11 38 38 11 39 38 11 
40 38 11 41 38 11 42 38 11 
43 38 11 44 38 11 45 38 11 
46 38 11 46 38 11 35 39 11 
35 39 11 36 39 11 37 39 11 
38 39 11 39 39 11 40 39 11 
41 39 11 42 39 11 43 39 11 
44 39 11 45 39 11 46 39 11 
46 39 11 35 40 11 35 40 11 
36 40 11 37 40 11 38 40 11 
39 40 11 40 40 11 41 40 11 
42 40 11 43 40 11 44 40 11 
45 40 11 46 40 11 46 40 11 
35 41 11 35 41 11 36 41 11 
37 41 11 38 41 11 39 41 11 
40 41 11 41 41 11 42 41 11 
43 41 11 44 41 11 45 41 11 
46 41 11 46 41 11 35 42 11 
35 42 11 36 42 11 37 42 11 
38 42 11 39 42 11 40 42 11 
41 42 11 42 42 11 43 42 11 
44 42 11 45 42 11 46 42 11 
46 42 11 35 43 11 35 43 11 
36 43 11 37 43 11 38 43 11 
39 43 11 40 43 11 41 43 11 
42 43 11 43 43 11 44 43 11 
45 43 11 45 43 11 46 42 11 
35 44 11 35 44 11 36 44 11 
37 44 11 38 44 11 39 44 11 
40 44 11 41 44 11 42 44 11 
43 44 11 44 44 11 44 44 11 
45 43 11 35 44 11 36 45 11 
36 45 11 37 45 11 38 45 11 
39 45 11 40 45 11 41 45 11 
42 45 11 43 45 11 43 45 11 
44 44 11 36 45 11 37 46 11 
37 46 11 38 46 11 39 46 11 
40 46 11 41 46 11 42 46 11 
42 46 11 43 45 11 37 46 11 
38 46 11 39 46 11 40 46 11 
41 46 11 42 46 11 39 29 12 
39 29 12 39 29 12 40 29 12 
40 29 12 40 29 12 35 30 12 
35 30 12 35 30 12 36 30 12 
36 30 12 37 30 12 37 30 12 
38 30 12 38 30 12 39 30 12 
40 30 12 41 30 12 41 30 12 
42 30 12 42 30 12 43 30 12 
43 30 12 44 30 12 44 30 12 
44 30 12 34 31 12 34 31 12 
34 31 12 35 31 12 36 31 12 
37 31 12 38 31 12 39 31 12 
40 31 12 41 31 12 42 31 12 
43 31 12 44 31 12 45 31 12 
45 31 12 45 31 12 33 32 12 
33 32 12 33 32 12 34 32 12 
35 32 12 36 32 12 37 32 12 
38 32 12 39 32 12 40 32 12 
41 32 12 42 32 12 43 32 12 
44 32 12 45 32 12 46 32 12 
46 32 12 46 32 12 33 33 12 
33 33 12 34 33 12 35 33 12 
36 33 12 43 33 12 44 33 12 
45 33 12 46 33 12 47 33 12 
47 33 12 47 33 12 33 34 12 
33 34 12 34 34 12 35 34 12 
44 34 12 45 34 12 46 34 12 
47 34 12 48 34 12 48 34 12 
48 34 12 33 35 12 33 35 12 
34 35 12 45 35 12 46 35 12 
47 35 12 48 35 12 49 35 12 
49 35 12 49 35 12 33 36 12 
33 36 12 34 36 12 46 36 12 
47 36 12 48 36 12 49 36 12 
49 36 12 33 37 12 33 37 12 
34 37 12 47 37 12 48 37 12 
49 37 12 49 37 12 33 38 12 
33 38 12 34 38 12 47 38 12 
48 38 12 49 38 12 49 38 12 
33 39 12 33 39 12 34 39 12 
47 39 12 48 39 12 49 39 12 
50 39 12 50 39 12 50 39 12 
33 40 12 33 40 12 34 40 12 
47 40 12 48 40 12 49 40 12 
50 40 12 50 40 12 33 41 12 
33 41 12 34 41 12 47 41 12 
48 41 12 49 41 12 49 41 12 
50 40 12 33 42 12 33 42 12 
34 42 12 47 42 12 48 42 12 
49 42 12 49 42 12 33 43 12 
33 43 12 34 43 12 46 43 12 
47 43 12 48 43 12 49 43 12 
49 43 12 33 44 12 33 44 12 
34 44 12 45 44 12 46 44 12 
47 44 12 48 44 12 49 44 12 
49 44 12 33 45 12 33 45 12 
34 45 12 35 45 12 44 45 12 
45 45 12 46 45 12 47 45 12 
48 45 12 48 45 12 49 44 12 
33 46 12 33 46 12 34 46 12 
35 46 12 36 46 12 43 46 12 
44 46 12 45 46 12 46 46 12 
47 46 12 47 46 12 48 45 12 
33 47 12 33 47 12 34 47 12 
35 47 12 36 47 12 37 47 12 
38 47 12 39 47 12 40 47 12 
41 47 12 42 47 12 43 47 12 
44 47 12 45 47 12 46 47 12 
46 47 12 47 46 12 33 47 12 
34 48 12 34 48 12 35 48 12 
36 48 12 37 48 12 38 48 12 
39 48 12 40 48 12 41 48 12 
42 48 12 43 48 12 44 48 12 
45 48 12 45 48 12 46 47 12 
34 48 12 35 49 12 35 49 12 
36 49 12 37 49 12 38 49 12 
39 49 12 40 49 12 41 49 12 
42 49 12 43 49 12 44 49 12 
44 49 12 45 48 12 35 49 12 
36 49 12 37 49 12 38 49 12 
39 50 12 39 50 12 40 50 12 
40 50 12 41 49 12 42 49 12 
43 49 12 44 49 12 39 50 12 
40 50 12 37 27 13 37 27 13 
37 27 13 38 27 13 38 27 13 
39 27 13 39 27 13 40 27 13 
40 27 13 41 27 13 41 27 13 
42 27 13 42 27 13 42 27 13 
34 28 13 34 28 13 34 28 13 
35 28 13 35 28 13 36 28 13 
36 28 13 37 28 13 38 28 13 
39 28 13 40 28 13 41 28 13 
42 28 13 43 28 13 43 28 13 
44 28 13 44 28 13 45 28 13 
45 28 13 45 28 13 33 29 13 
33 29 13 33 29 13 34 29 13 
35 29 13 36 29 13 37 29 13 
38 29 13 41 29 13 42 29 13 
43 29 13 44 29 13 45 29 13 
46 29 13 46 29 13 46 29 13 
32 30 13 32 30 13 32 30 13 
33 30 13 34 30 13 45 30 13 
46 30 13 47 30 13 47 30 13 
47 30 13 31 31 13 31 31 13 
31 31 13 32 31 13 33 31 13 
46 31 13 47 31 13 48 31 13 
48 31 13 48 31 13 30 32 13 
30 32 13 30 32 13 31 32 13 
32 32 13 47 32 13 48 32 13 
49 32 13 49 32 13 49 32 13 
30 33 13 30 33 13 31 33 13 
32 33 13 48 33 13 49 33 13 
50 33 13 50 33 13 50 33 13 
30 33 13 31 34 13 31 34 13 
32 34 13 49 34 13 50 34 13 
51 34 13 51 34 13 51 34 13 
31 34 13 32 35 13 32 35 13 
50 35 13 51 35 13 51 35 13 
32 36 13 32 36 13 50 36 13 
51 36 13 51 36 13 32 37 13 
32 37 13 50 37 13 51 37 13 
52 37 13 52 37 13 52 37 13 
32 38 13 32 38 13 50 38 13 
51 38 13 52 38 13 52 38 13 
32 39 13 32 39 13 51 39 13 
52 39 13 52 39 13 32 40 13 
32 40 13 51 40 13 52 40 13 
52 40 13 32 41 13 32 41 13 
50 41 13 51 41 13 52 41 13 
52 41 13 32 42 13 32 42 13 
50 42 13 51 42 13 52 42 13 
52 42 13 32 43 13 32 43 13 
50 43 13 51 43 13 51 43 13 
52 42 13 32 44 13 32 44 13 
50 44 13 51 44 13 51 44 13 
31 45 13 31 45 13 31 45 13 
32 45 13 49 45 13 50 45 13 
51 45 13 51 45 13 30 46 13 
30 46 13 30 46 13 31 46 13 
32 46 13 48 46 13 49 46 13 
50 46 13 50 46 13 51 45 13 
30 47 13 30 47 13 31 47 13 
32 47 13 47 47 13 48 47 13 
49 47 13 49 47 13 50 46 13 
30 47 13 31 48 13 31 48 13 
32 48 13 33 48 13 46 48 13 
47 48 13 48 48 13 48 48 13 
49 47 13 31 48 13 32 49 13 
32 49 13 33 49 13 34 49 13 
45 49 13 46 49 13 47 49 13 
47 49 13 48 48 13 32 49 13 
33 50 13 33 50 13 34 50 13 
35 50 13 36 50 13 37 50 13 
38 50 13 41 50 13 42 50 13 
43 50 13 44 50 13 45 50 13 
46 50 13 46 50 13 47 49 13 
33 50 13 34 51 13 34 51 13 
35 51 13 36 51 13 37 51 13 
38 51 13 39 51 13 40 51 13 
41 51 13 42 51 13 43 51 13 
44 51 13 45 51 13 45 51 13 
46 50 13 34 51 13 35 51 13 
36 51 13 37 52 13 37 52 13 
38 52 13 39 52 13 40 52 13 
41 52 13 42 52 13 42 52 13 
43 51 13 44 51 13 45 51 13 
37 52 13 38 52 13 39 52 13 
40 52 13 41 52 13 42 52 13 
37 25 14 37 25 14 37 25 14 
38 25 14 38 25 14 39 25 14 
39 25 14 40 25 14 40 25 14 
41 25 14 41 25 14 42 25 14 
42 25 14 42 25 14 34 26 14 
34 26 14 34 26 14 35 26 14 
35 26 14 36 26 14 36 26 14 
37 26 14 38 26 14 39 26 14 
40 26 14 41 26 14 42 26 14 
43 26 14 43 26 14 44 26 14 
44 26 14 45 26 14 45 26 14 
45 26 14 32 27 14 32 27 14 
32 27 14 33 27 14 33 27 14 
34 27 14 35 27 14 36 27 14 
43 27 14 44 27 14 45 27 14 
46 27 14 46 27 14 47 27 14 
47 27 14 47 27 14 31 28 14 
31 28 14 31 28 14 32 28 14 
33 28 14 46 28 14 47 28 14 
48 28 14 48 28 14 48 28 14 
30 29 14 30 29 14 30 29 14 
31 29 14 32 29 14 47 29 14 
48 29 14 49 29 14 49 29 14 
49 29 14 29 30 14 29 30 14 
29 30 14 30 30 14 31 30 14 
48 30 14 49 30 14 50 30 14 
50 30 14 50 30 14 28 31 14 
28 31 14 28 31 14 29 31 14 
30 31 14 49 31 14 50 31 14 
51 31 14 51 31 14 51 31 14 
28 32 14 28 32 14 29 32 14 
50 32 14 51 32 14 52 32 14 
52 32 14 52 32 14 28 33 14 
28 33 14 29 33 14 51 33 14 
52 33 14 52 33 14 28 34 14 
28 34 14 29 34 14 30 34 14 
52 34 14 53 34 14 53 34 14 
53 34 14 28 34 14 29 35 14 
29 35 14 30 35 14 31 35 14 
52 35 14 53 35 14 53 35 14 
29 35 14 30 36 14 30 36 14 
31 36 14 52 36 14 53 36 14 
53 36 14 30 36 14 31 37 14 
31 37 14 53 37 14 54 37 14 
54 37 14 54 37 14 31 38 14 
31 38 14 53 38 14 54 38 14 
54 38 14 31 39 14 31 39 14 
53 39 14 54 39 14 54 39 14 
31 40 14 31 40 14 53 40 14 
54 40 14 54 40 14 31 41 14 
31 41 14 53 41 14 54 41 14 
54 41 14 31 42 14 31 42 14 
53 42 14 54 42 14 54 42 14 
30 43 14 30 43 14 30 43 14 
31 43 14 52 43 14 53 43 14 
53 43 14 54 42 14 29 44 14 
29 44 14 29 44 14 30 44 14 
31 44 14 52 44 14 53 44 14 
53 44 14 28 45 14 28 45 14 
28 45 14 29 45 14 30 45 14 
52 45 14 53 45 14 53 45 14 
28 46 14 28 46 14 29 46 14 
51 46 14 52 46 14 52 46 14 
53 45 14 28 47 14 28 47 14 
29 47 14 50 47 14 51 47 14 
52 47 14 52 47 14 28 48 14 
28 48 14 29 48 14 30 48 14 
49 48 14 50 48 14 51 48 14 
51 48 14 52 47 14 28 48 14 
29 49 14 29 49 14 30 49 14 
31 49 14 48 49 14 49 49 14 
50 49 14 50 49 14 51 48 14 
29 49 14 30 50 14 30 50 14 
31 50 14 32 50 14 47 50 14 
48 50 14 49 50 14 49 50 14 
50 49 14 30 50 14 31 51 14 
31 51 14 32 51 14 33 51 14 
46 51 14 47 51 14 48 51 14 
48 51 14 49 50 14 31 51 14 
32 52 14 32 52 14 33 52 14 
34 52 14 35 52 14 36 52 14 
43 52 14 44 52 14 45 52 14 
46 52 14 47 52 14 47 52 14 
48 51 14 32 52 14 33 52 14 
34 53 14 34 53 14 35 53 14 
36 53 14 37 53 14 38 53 14 
39 53 14 40 53 14 41 53 14 
42 53 14 43 53 14 44 53 14 
45 53 14 45 53 14 46 52 14 
47 52 14 34 53 14 35 53 14 
36 53 14 37 54 14 37 54 14 
38 54 14 39 54 14 40 54 14 
41 54 14 42 54 14 42 54 14 
43 53 14 44 53 14 45 53 14 
37 54 14 38 54 14 39 54 14 
40 54 14 41 54 14 42 54 14 
35 24 15 35 24 15 35 24 15 
36 24 15 36 24 15 37 24 15 
37 24 15 38 24 15 38 24 15 
39 24 15 39 24 15 40 24 15 
40 24 15 41 24 15 41 24 15 
42 24 15 42 24 15 43 24 15 
43 24 15 44 24 15 44 24 15 
44 24 15 33 25 15 33 25 15 
33 25 15 34 25 15 34 25 15 
35 25 15 36 25 15 43 25 15 
44 25 15 45 25 15 45 25 15 
46 25 15 46 25 15 46 25 15 
31 26 15 31 26 15 31 26 15 
32 26 15 32 26 15 33 26 15 
46 26 15 47 26 15 47 26 15 
48 26 15 48 26 15 48 26 15 
29 27 15 29 27 15 29 27 15 
30 27 15 30 27 15 31 27 15 
48 27 15 49 27 15 49 27 15 
50 27 15 50 27 15 50 27 15 
28 28 15 28 28 15 28 28 15 
29 28 15 30 28 15 49 28 15 
50 28 15 51 28 15 51 28 15 
51 28 15 27 29 15 27 29 15 
27 29 15 28 29 15 29 29 15 
50 29 15 51 29 15 52 29 15 
[...]
POINT_DATA 16768
SCALARS scalars float
LOOKUP_TABLE default
-1,07436e-17 4,56151e-41 -1,07436e-17 4,56151e-41 2,35888e-35 0 2,35888e-35 0 4,2039e-45 
0 0 0 4,2039e-45 0 5,60519e-45 0 4,2039e-45 0 
2,8026e-45 0 4,2039e-45 0 0 0 4,2039e-45 0 5,60519e-45 
0 7,00649e-45 0 8,40779e-45 0 4,2039e-45 0 4,2039e-45 0 
7,00649e-45 0 5,60519e-45 0 4,2039e-45 0 8,40779e-45 0 9,80909e-45 
0 1,12104e-44 0 4,2039e-45 0 7,00649e-45 0 9,80909e-45 0 
8,40779e-45 0 4,2039e-45 0 1,12104e-44 0 1,26117e-44 0 1,4013e-44 
0 4,2039e-45 0 9,80909e-45 0 1,26117e-44 0 1,12104e-44 0 
4,2039e-45 0 1,4013e-44 0 1,54143e-44 0 1,68156e-44 0 4,2039e-45 
0 1,26117e-44 0 1,54143e-44 0 1,4013e-44 0 4,2039e-45 0 
1,54143e-44 0 1,82169e-44 0 1,68156e-44 0 4,2039e-45 0 1,96182e-44 
0 2,10195e-44 0 2,24208e-44 0 4,2039e-45 0 1,4013e-45 0 
1,96182e-44 0 2,24208e-44 0 4,2039e-45 0 1,4013e-45 0 0 
0 1,96182e-44 0 4,2039e-45 0 0 0 2,38221e-44 0 
1,96182e-44 0 4,2039e-45 0 5,60519e-45 0 2,52234e-44 0 0 
0 4,2039e-45 0 2,52234e-44 0 2,38221e-44 0 0 0 
4,2039e-45 0 8,40779e-45 0 2,66247e-44 0 5,60519e-45 0 4,2039e-45 
0 2,66247e-44 0 2,52234e-44 0 5,60519e-45 0 4,2039e-45 0 
1,12104e-44 0 2,8026e-44 0 8,40779e-45 0 4,2039e-45 0 2,8026e-44 
0 2,66247e-44 0 8,40779e-45 0 4,2039e-45 0 1,4013e-44 0 
2,94273e-44 0 1,12104e-44 0 4,2039e-45 0 2,94273e-44 0 2,8026e-44 
0 1,12104e-44 0 4,2039e-45 0 1,68156e-44 0 3,08286e-44 0 
1,4013e-44 0 4,2039e-45 0 3,08286e-44 0 2,94273e-44 0 1,4013e-44 
0 4,2039e-45 0 3,22299e-44 0 1,68156e-44 0 1,82169e-44 0 
4,2039e-45 0 3,22299e-44 0 3,36312e-44 0 1,68156e-44 0 4,2039e-45 
0 3,36312e-44 0 3,08286e-44 0 1,68156e-44 0 4,2039e-45 0 
3,22299e-44 0 3,50325e-44 0 3,36312e-44 0 4,2039e-45 0 3,64338e-44 
0 3,78351e-44 0 3,92364e-44 0 4,2039e-45 0 2,10195e-44 0 
3,64338e-44 0 3,92364e-44 0 4,2039e-45 0 2,10195e-44 0 1,96182e-44 
0 3,64338e-44 0 4,2039e-45 0 1,96182e-44 0 4,06377e-44 0 
3,64338e-44 0 4,2039e-45 0 2,38221e-44 0 4,2039e-44 0 1,96182e-44 
0 4,2039e-45 0 4,2039e-44 0 4,06377e-44 0 1,96182e-44 0 
4,2039e-45 0 2,52234e-44 0 4,34403e-44 0 2,38221e-44 0 4,2039e-45 
0 4,34403e-44 0 4,2039e-44 0 2,38221e-44 0 4,2039e-45 0 
2,66247e-44 0 4,48416e-44 0 2,52234e-44 0 4,2039e-45 0 4,48416e-44 
0 4,34403e-44 0 2,52234e-44 0 4,2039e-45 0 2,8026e-44 0 
4,62428e-44 0 2,66247e-44 0 4,2039e-45 0 4,62428e-44 0 4,48416e-44 
0 2,66247e-44 0 4,2039e-45 0 2,94273e-44 0 4,76441e-44 0 
2,8026e-44 0 4,2039e-45 0 4,76441e-44 0 4,62428e-44 0 2,8026e-44 
0 4,2039e-45 0 3,08286e-44 0 4,90454e-44 0 2,94273e-44 0 
4,2039e-45 0 4,90454e-44 0 4,76441e-44 0 2,94273e-44 0 4,2039e-45 
0 3,36312e-44 0 5,04467e-44 0 3,08286e-44 0 4,2039e-45 0 
5,04467e-44 0 4,90454e-44 0 3,08286e-44 0 4,2039e-45 0 5,1848e-44 
0 3,36312e-44 0 3,50325e-44 0 4,2039e-45 0 5,1848e-44 0 
5,32493e-44 0 3,36312e-44 0 4,2039e-45 0 5,32493e-44 0 5,04467e-44 
0 3,36312e-44 0 4,2039e-45 0 5,1848e-44 0 5,46506e-44 0 
5,32493e-44 0 4,2039e-45 0 5,60519e-44 0 3,78351e-44 0 3,64338e-44 
0 4,2039e-45 0 5,74532e-44 0 3,78351e-44 0 5,60519e-44 0 
4,2039e-45 0 4,06377e-44 0 5,88545e-44 0 3,64338e-44 0 4,2039e-45 
0 5,88545e-44 0 5,60519e-44 0 3,64338e-44 0 4,2039e-45 0 
4,2039e-44 0 6,02558e-44 0 4,06377e-44 0 4,2039e-45 0 6,02558e-44 
0 5,88545e-44 0 4,06377e-44 0 4,2039e-45 0 4,34403e-44 0 
6,16571e-44 0 4,2039e-44 0 4,2039e-45 0 6,16571e-44 0 6,02558e-44 
0 4,2039e-44 0 4,2039e-45 0 4,48416e-44 0 6,30584e-44 0 
4,34403e-44 0 4,2039e-45 0 6,30584e-44 0 6,16571e-44 0 4,34403e-44 
0 4,2039e-45 0 4,62428e-44 0 6,44597e-44 0 4,48416e-44 0 
4,2039e-45 0 6,44597e-44 0 6,30584e-44 0 4,48416e-44 0 4,2039e-45 
0 4,76441e-44 0 6,5861e-44 0 4,62428e-44 0 4,2039e-45 0 
6,5861e-44 0 6,44597e-44 0 4,62428e-44 0 4,2039e-45 0 4,90454e-44 
0 6,72623e-44 0 4,76441e-44 0 4,2039e-45 0 6,72623e-44 0 
6,5861e-44 0 4,76441e-44 0 4,2039e-45 0 5,04467e-44 0 6,86636e-44 
0 4,90454e-44 0 4,2039e-45 0 6,86636e-44 0 6,72623e-44 0 
4,90454e-44 0 4,2039e-45 0 5,32493e-44 0 7,00649e-44 0 5,04467e-44 
0 4,2039e-45 0 7,00649e-44 0 6,86636e-44 0 5,04467e-44 0 
4,2039e-45 0 7,14662e-44 0 5,32493e-44 0 5,46506e-44 0 4,2039e-45 
0 7,14662e-44 0 7,28675e-44 0 5,32493e-44 0 4,2039e-45 0 
7,28675e-44 0 7,00649e-44 0 5,32493e-44 0 4,2039e-45 0 7,14662e-44 
0 7,42688e-44 0 7,28675e-44 0 4,2039e-45 0 7,56701e-44 0 
5,74532e-44 0 5,60519e-44 0 4,2039e-45 0 7,70714e-44 0 5,74532e-44 
0 7,56701e-44 0 4,2039e-45 0 5,88545e-44 0 7,84727e-44 0 
5,60519e-44 0 4,2039e-45 0 7,84727e-44 0 7,56701e-44 0 5,60519e-44 
0 4,2039e-45 0 6,02558e-44 0 7,9874e-44 0 5,88545e-44 0 
4,2039e-45 0 7,9874e-44 0 7,84727e-44 0 5,88545e-44 0 4,2039e-45 
0 6,16571e-44 0 8,12753e-44 0 6,02558e-44 0 4,2039e-45 0 
8,12753e-44 0 7,9874e-44 0 6,02558e-44 0 4,2039e-45 0 6,30584e-44 
0 8,26766e-44 0 6,16571e-44 0 4,2039e-45 0 8,26766e-44 0 
8,12753e-44 0 6,16571e-44 0 4,2039e-45 0 6,44597e-44 0 8,40779e-44 
0 6,30584e-44 0 4,2039e-45 0 8,40779e-44 0 8,26766e-44 0 
6,30584e-44 0 4,2039e-45 0 6,5861e-44 0 8,54792e-44 0 6,44597e-44 
0 4,2039e-45 0 8,54792e-44 0 8,40779e-44 0 6,44597e-44 0 
4,2039e-45 0 6,72623e-44 0 8,68805e-44 0 6,5861e-44 0 4,2039e-45 
0 8,68805e-44 0 8,54792e-44 0 6,5861e-44 0 4,2039e-45 0 
6,86636e-44 0 8,82818e-44 0 6,72623e-44 0 4,2039e-45 0 8,82818e-44 
0 8,68805e-44 0 6,72623e-44 0 4,2039e-45 0 7,00649e-44 0 
8,96831e-44 0 6,86636e-44 0 4,2039e-45 0 8,96831e-44 0 8,82818e-44 
0 6,86636e-44 0 4,2039e-45 0 7,28675e-44 0 9,10844e-44 0 
7,00649e-44 0 4,2039e-45 0 9,10844e-44 0 8,96831e-44 0 7,00649e-44 
0 4,2039e-45 0 9,24857e-44 0 7,28675e-44 0 7,42688e-44 0 
4,2039e-45 0 9,24857e-44 0 9,3887e-44 0 7,28675e-44 0 4,2039e-45 
0 9,3887e-44 0 9,10844e-44 0 7,28675e-44 0 4,2039e-45 0 
9,24857e-44 0 9,52883e-44 0 9,3887e-44 0 4,2039e-45 0 9,66896e-44 
0 7,70714e-44 0 7,56701e-44 0 4,2039e-45 0 9,80909e-44 0 
7,70714e-44 0 9,66896e-44 0 4,2039e-45 0 7,84727e-44 0 9,94922e-44 
0 7,56701e-44 0 4,2039e-45 0 9,94922e-44 0 9,66896e-44 0 
7,56701e-44 0 4,2039e-45 0 7,9874e-44 0 1,00893e-43 0 7,84727e-44 
0 4,2039e-45 0 1,00893e-43 0 9,94922e-44 0 7,84727e-44 0 
4,2039e-45 0 8,12753e-44 0 1,02295e-43 0 7,9874e-44 0 4,2039e-45 
0 1,02295e-43 0 1,00893e-43 0 7,9874e-44 0 4,2039e-45 0 
8,26766e-44 0 1,03696e-43 0 8,12753e-44 0 4,2039e-45 0 1,03696e-43 
0 1,02295e-43 0 8,12753e-44 0 4,2039e-45 0 8,40779e-44 0 
1,05097e-43 0 8,26766e-44 0 4,2039e-45 0 1,05097e-43 0 1,03696e-43 
0 8,26766e-44 0 4,2039e-45 0 8,54792e-44 0 1,06499e-43 0 
8,40779e-44 0 4,2039e-45 0 1,06499e-43 0 1,05097e-43 0 8,40779e-44 
0 4,2039e-45 0 8,68805e-44 0 1,079e-43 0 8,54792e-44 0 
4,2039e-45 0 1,079e-43 0 1,06499e-43 0 8,54792e-44 0 4,2039e-45 
0 8,82818e-44 0 1,09301e-43 0 8,68805e-44 0 4,2039e-45 0 
1,09301e-43 0 1,079e-43 0 8,68805e-44 0 4,2039e-45 0 8,96831e-44 
0 1,10703e-43 0 8,82818e-44 0 4,2039e-45 0 1,10703e-43 0 
1,09301e-43 0 8,82818e-44 0 4,2039e-45 0 9,10844e-44 0 1,12104e-43 
0 8,96831e-44 0 4,2039e-45 0 1,12104e-43 0 1,10703e-43 0 
8,96831e-44 0 4,2039e-45 0 9,3887e-44 0 1,13505e-43 0 9,10844e-44 
0 4,2039e-45 0 1,13505e-43 0 1,12104e-43 0 9,10844e-44 0 
4,2039e-45 0 1,14906e-43 0 9,3887e-44 0 9,52883e-44 0 4,2039e-45 
0 1,13505e-43 0 9,3887e-44 0 1,14906e-43 0 4,2039e-45 0 
1,16308e-43 0 9,80909e-44 0 9,66896e-44 0 4,2039e-45 0 1,17709e-43 
0 9,80909e-44 0 1,16308e-43 0 4,2039e-45 0 9,94922e-44 0 
1,1911e-43 0 9,66896e-44 0 4,2039e-45 0 1,1911e-43 0 1,16308e-43 
0 9,66896e-44 0 4,2039e-45 0 1,00893e-43 0 1,20512e-43 0 
9,94922e-44 0 4,2039e-45 0 1,20512e-43 0 1,1911e-43 0 9,94922e-44 
0 4,2039e-45 0 1,02295e-43 0 1,21913e-43 0 1,00893e-43 0 
4,2039e-45 0 1,21913e-43 0 1,20512e-43 0 1,00893e-43 0 4,2039e-45 
0 1,03696e-43 0 1,23314e-43 0 1,02295e-43 0 4,2039e-45 0 
1,23314e-43 0 1,21913e-43 0 1,02295e-43 0 4,2039e-45 0 1,05097e-43 
0 1,24716e-43 0 1,03696e-43 0 4,2039e-45 0 1,24716e-43 0 
1,23314e-43 0 1,03696e-43 0 4,2039e-45 0 1,06499e-43 0 1,26117e-43 
0 1,05097e-43 0 4,2039e-45 0 1,26117e-43 0 1,24716e-43 0 
1,05097e-43 0 4,2039e-45 0 1,079e-43 0 1,27518e-43 0 1,06499e-43 
0 4,2039e-45 0 1,27518e-43 0 1,26117e-43 0 1,06499e-43 0 
4,2039e-45 0 1,09301e-43 0 1,28919e-43 0 1,079e-43 0 4,2039e-45 
0 1,28919e-43 0 1,27518e-43 0 1,079e-43 0 4,2039e-45 0 
1,10703e-43 0 1,30321e-43 0 1,09301e-43 0 4,2039e-45 0 1,30321e-43 
0 1,28919e-43 0 1,09301e-43 0 4,2039e-45 0 1,12104e-43 0 
1,31722e-43 0 1,10703e-43 0 4,2039e-45 0 1,31722e-43 0 1,30321e-43 
0 1,10703e-43 0 4,2039e-45 0 1,13505e-43 0 1,33123e-43 0 
1,12104e-43 0 4,2039e-45 0 1,33123e-43 0 1,31722e-43 0 1,12104e-43 
0 4,2039e-45 0 1,34525e-43 0 1,13505e-43 0 1,14906e-43 0 
4,2039e-45 0 1,33123e-43 0 1,13505e-43 0 1,34525e-43 0 4,2039e-45 
0 1,35926e-43 0 1,17709e-43 0 1,16308e-43 0 4,2039e-45 0 
1,37327e-43 0 1,17709e-43 0 1,35926e-43 0 4,2039e-45 0 1,1911e-43 
0 1,38729e-43 0 1,16308e-43 0 4,2039e-45 0 1,38729e-43 0 
1,35926e-43 0 1,16308e-43 0 4,2039e-45 0 1,20512e-43 0 1,4013e-43 
0 1,1911e-43 0 4,2039e-45 0 1,4013e-43 0 1,38729e-43 0 
1,1911e-43 0 4,2039e-45 0 1,21913e-43 0 1,41531e-43 0 1,20512e-43 
0 4,2039e-45 0 1,41531e-43 0 1,4013e-43 0 1,20512e-43 0 
4,2039e-45 0 1,23314e-43 0 1,42932e-43 0 1,21913e-43 0 4,2039e-45 
0 1,42932e-43 0 1,41531e-43 0 1,21913e-43 0 4,2039e-45 0 
1,24716e-43 0 1,44334e-43 0 1,23314e-43 0 4,2039e-45 0 1,44334e-43 
0 1,42932e-43 0 1,23314e-43 0 4,2039e-45 0 1,26117e-43 0 
1,45735e-43 0 1,24716e-43 0 4,2039e-45 0 1,45735e-43 0 1,44334e-43 
0 1,24716e-43 0 4,2039e-45 0 1,27518e-43 0 1,47136e-43 0 
1,26117e-43 0 4,2039e-45 0 1,47136e-43 0 1,45735e-43 0 1,26117e-43 
0 4,2039e-45 0 1,28919e-43 0 1,48538e-43 0 1,27518e-43 0 
4,2039e-45 0 1,48538e-43 0 1,47136e-43 0 1,27518e-43 0 4,2039e-45 
0 1,30321e-43 0 1,49939e-43 0 1,28919e-43 0 4,2039e-45 0 
1,49939e-43 0 1,48538e-43 0 1,28919e-43 0 4,2039e-45 0 1,31722e-43 
0 1,5134e-43 0 1,30321e-43 0 4,2039e-45 0 1,5134e-43 0 
1,49939e-43 0 1,30321e-43 0 4,2039e-45 0 1,33123e-43 0 1,52742e-43 
0 1,31722e-43 0 4,2039e-45 0 1,52742e-43 0 1,5134e-43 0 
1,31722e-43 0 4,2039e-45 0 1,54143e-43 0 1,33123e-43 0 1,34525e-43 
0 4,2039e-45 0 1,52742e-43 0 1,33123e-43 0 1,54143e-43 0 
4,2039e-45 0 1,55544e-43 0 1,37327e-43 0 1,35926e-43 0 4,2039e-45 
0 1,56945e-43 0 1,37327e-43 0 1,55544e-43 0 4,2039e-45 0 
1,38729e-43 0 1,58347e-43 0 1,35926e-43 0 4,2039e-45 0 1,58347e-43 
0 1,55544e-43 0 1,35926e-43 0 4,2039e-45 0 1,4013e-43 0 
1,59748e-43 0 1,38729e-43 0 4,2039e-45 0 1,59748e-43 0 1,58347e-43 
0 1,38729e-43 0 4,2039e-45 0 1,41531e-43 0 1,61149e-43 0 
1,4013e-43 0 4,2039e-45 0 1,61149e-43 0 1,59748e-43 0 1,4013e-43 
0 4,2039e-45 0 1,42932e-43 0 1,62551e-43 0 1,41531e-43 0 
4,2039e-45 0 1,62551e-43 0 1,61149e-43 0 1,41531e-43 0 4,2039e-45 
0 1,44334e-43 0 1,63952e-43 0 1,42932e-43 0 4,2039e-45 0 
1,63952e-43 0 1,62551e-43 0 1,42932e-43 0 4,2039e-45 0 1,45735e-43 
0 1,65353e-43 0 1,44334e-43 0 4,2039e-45 0 1,65353e-43 0 
1,63952e-43 0 1,44334e-43 0 4,2039e-45 0 1,47136e-43 0 1,66755e-43 
0 1,45735e-43 0 4,2039e-45 0 1,66755e-43 0 1,65353e-43 0 
1,45735e-43 0 4,2039e-45 0 1,48538e-43 0 1,68156e-43 0 1,47136e-43 
0 4,2039e-45 0 1,68156e-43 0 1,66755e-43 0 1,47136e-43 0 
4,2039e-45 0 1,49939e-43 0 1,69557e-43 0 1,48538e-43 0 4,2039e-45 
0 1,69557e-43 0 1,68156e-43 0 1,48538e-43 0 4,2039e-45 0 
1,5134e-43 0 1,70958e-43 0 1,49939e-43 0 4,2039e-45 0 1,70958e-43 
0 1,69557e-43 0 1,49939e-43 0 4,2039e-45 0 1,52742e-43 0 
1,7236e-43 0 1,5134e-43 0 4,2039e-45 0 1,7236e-43 0 1,70958e-43 
0 1,5134e-43 0 4,2039e-45 0 1,73761e-43 0 1,52742e-43 0 
1,54143e-43 0 4,2039e-45 0 1,7236e-43 0 1,52742e-43 0 1,73761e-43 
0 4,2039e-45 0 1,75162e-43 0 1,56945e-43 0 1,55544e-43 0 
4,2039e-45 0 1,76564e-43 0 1,56945e-43 0 1,75162e-43 0 4,2039e-45 
0 1,58347e-43 0 1,77965e-43 0 1,55544e-43 0 4,2039e-45 0 
1,77965e-43 0 1,75162e-43 0 1,55544e-43 0 4,2039e-45 0 1,59748e-43 
0 1,79366e-43 0 1,58347e-43 0 4,2039e-45 0 1,79366e-43 0 
1,77965e-43 0 1,58347e-43 0 4,2039e-45 0 1,61149e-43 0 1,80768e-43 
0 1,59748e-43 0 4,2039e-45 0 1,80768e-43 0 1,79366e-43 0 
1,59748e-43 0 4,2039e-45 0 1,62551e-43 0 1,82169e-43 0 1,61149e-43 
0 4,2039e-45 0 1,82169e-43 0 1,80768e-43 0 1,61149e-43 0 
4,2039e-45 0 1,63952e-43 0 1,8357e-43 0 1,62551e-43 0 4,2039e-45 
0 1,8357e-43 0 1,82169e-43 0 1,62551e-43 0 4,2039e-45 0 
1,65353e-43 0 1,84971e-43 0 1,63952e-43 0 4,2039e-45 0 1,84971e-43 
0 1,8357e-43 0 1,63952e-43 0 4,2039e-45 0 1,66755e-43 0 
1,86373e-43 0 1,65353e-43 0 4,2039e-45 0 1,86373e-43 0 1,84971e-43 
0 1,65353e-43 0 4,2039e-45 0 1,68156e-43 0 1,87774e-43 0 
1,66755e-43 0 4,2039e-45 0 1,87774e-43 0 1,86373e-43 0 1,66755e-43 
0 4,2039e-45 0 1,69557e-43 0 1,89175e-43 0 1,68156e-43 0 
4,2039e-45 0 1,89175e-43 0 1,87774e-43 0 1,68156e-43 0 4,2039e-45 
0 1,70958e-43 0 1,90577e-43 0 1,69557e-43 0 4,2039e-45 0 
1,90577e-43 0 1,89175e-43 0 1,69557e-43 0 4,2039e-45 0 1,7236e-43 
0 1,91978e-43 0 1,70958e-43 0 4,2039e-45 0 1,91978e-43 0 
1,90577e-43 0 1,70958e-43 0 4,2039e-45 0 1,93379e-43 0 1,7236e-43 
0 1,73761e-43 0 4,2039e-45 0 1,91978e-43 0 1,7236e-43 0 
1,93379e-43 0 4,2039e-45 0 1,9478e-43 0 1,76564e-43 0 1,75162e-43 
0 4,2039e-45 0 1,96182e-43 0 1,76564e-43 0 1,9478e-43 0 
4,2039e-45 0 1,77965e-43 0 1,97583e-43 0 1,75162e-43 0 4,2039e-45 
0 1,97583e-43 0 1,9478e-43 0 1,75162e-43 0 4,2039e-45 0 
1,79366e-43 0 1,98984e-43 0 1,77965e-43 0 4,2039e-45 0 1,98984e-43 
0 1,97583e-43 0 1,77965e-43 0 4,2039e-45 0 1,80768e-43 0 
2,00386e-43 0 1,79366e-43 0 4,2039e-45 0 2,00386e-43 0 1,98984e-43 
0 1,79366e-43 0 4,2039e-45 0 1,82169e-43 0 2,01787e-43 0 
1,80768e-43 0 4,2039e-45 0 2,01787e-43 0 2,00386e-43 0 1,80768e-43 
0 4,2039e-45 0 1,8357e-43 0 2,03188e-43 0 1,82169e-43 0 
4,2039e-45 0 2,03188e-43 0 2,01787e-43 0 1,82169e-43 0 4,2039e-45 
0 1,84971e-43 0 2,0459e-43 0 1,8357e-43 0 4,2039e-45 0 
2,0459e-43 0 2,03188e-43 0 1,8357e-43 0 4,2039e-45 0 1,86373e-43 
0 2,05991e-43 0 1,84971e-43 0 4,2039e-45 0 2,05991e-43 0 
2,0459e-43 0 1,84971e-43 0 4,2039e-45 0 1,87774e-43 0 2,07392e-43 
0 1,86373e-43 0 4,2039e-45 0 2,07392e-43 0 2,05991e-43 0 
1,86373e-43 0 4,2039e-45 0 1,89175e-43 0 2,08793e-43 0 1,87774e-43 
0 4,2039e-45 0 2,08793e-43 0 2,07392e-43 0 1,87774e-43 0 
4,2039e-45 0 1,90577e-43 0 2,10195e-43 0 1,89175e-43 0 4,2039e-45 
0 2,10195e-43 0 2,08793e-43 0 1,89175e-43 0 4,2039e-45 0 
2,11596e-43 0 1,91978e-43 0 2,12997e-43 0 4,2039e-45 0 2,11596e-43 
0 2,10195e-43 0 1,91978e-43 0 4,2039e-45 0 2,10195e-43 0 
1,90577e-43 0 1,91978e-43 0 4,2039e-45 0 1,93379e-43 0 2,12997e-43 
0 1,91978e-43 0 4,2039e-45 0 2,14399e-43 0 1,96182e-43 0 
1,9478e-43 0 4,2039e-45 0 2,158e-43 0 1,96182e-43 0 2,14399e-43 
0 4,2039e-45 0 1,97583e-43 0 2,17201e-43 0 1,9478e-43 0 
4,2039e-45 0 2,17201e-43 0 2,14399e-43 0 1,9478e-43 0 4,2039e-45 
0 1,98984e-43 0 2,18603e-43 0 1,97583e-43 0 4,2039e-45 0 
2,18603e-43 0 2,17201e-43 0 1,97583e-43 0 4,2039e-45 0 2,00386e-43 
0 2,20004e-43 0 1,98984e-43 0 4,2039e-45 0 2,20004e-43 0 
2,18603e-43 0 1,98984e-43 0 4,2039e-45 0 2,01787e-43 0 2,21405e-43 
0 2,00386e-43 0 4,2039e-45 0 2,21405e-43 0 2,20004e-43 0 
2,00386e-43 0 4,2039e-45 0 2,03188e-43 0 2,22806e-43 0 2,01787e-43 
0 4,2039e-45 0 2,22806e-43 0 2,21405e-43 0 2,01787e-43 0 
4,2039e-45 0 2,0459e-43 0 2,24208e-43 0 2,03188e-43 0 4,2039e-45 
0 2,24208e-43 0 2,22806e-43 0 2,03188e-43 0 4,2039e-45 0 
2,05991e-43 0 2,25609e-43 0 2,0459e-43 0 4,2039e-45 0 2,25609e-43 
0 2,24208e-43 0 2,0459e-43 0 4,2039e-45 0 2,07392e-43 0 
2,2701e-43 0 2,05991e-43 0 4,2039e-45 0 2,2701e-43 0 2,25609e-43 
0 2,05991e-43 0 4,2039e-45 0 2,08793e-43 0 2,28412e-43 0 
2,07392e-43 0 4,2039e-45 0 2,28412e-43 0 2,2701e-43 0 2,07392e-43 
0 4,2039e-45 0 2,29813e-43 0 2,10195e-43 0 2,31214e-43 0 
4,2039e-45 0 2,29813e-43 0 2,28412e-43 0 2,10195e-43 0 4,2039e-45 
0 2,28412e-43 0 2,08793e-43 0 2,10195e-43 0 4,2039e-45 0 
2,11596e-43 0 2,31214e-43 0 2,10195e-43 0 4,2039e-45 0 2,14399e-43 
0 2,32616e-43 0 2,158e-43 0 4,2039e-45 0 2,32616e-43 0 
2,34017e-43 0 2,35418e-43 0 4,2039e-45 0 2,32616e-43 0 2,14399e-43 
0 2,34017e-43 0 4,2039e-45 0 2,14399e-43 0 2,17201e-43 0 
2,34017e-43 0 4,2039e-45 0 2,18603e-43 0 2,36819e-43 0 2,17201e-43 
0 4,2039e-45 0 2,36819e-43 0 2,34017e-43 0 2,17201e-43 0 
4,2039e-45 0 2,20004e-43 0 2,38221e-43 0 2,18603e-43 0 4,2039e-45 
0 2,38221e-43 0 2,36819e-43 0 2,18603e-43 0 4,2039e-45 0 
2,21405e-43 0 2,39622e-43 0 2,20004e-43 0 4,2039e-45 0 2,39622e-43 
0 2,38221e-43 0 2,20004e-43 0 4,2039e-45 0 2,22806e-43 0 
2,41023e-43 0 2,21405e-43 0 4,2039e-45 0 2,41023e-43 0 2,39622e-43 
0 2,21405e-43 0 4,2039e-45 0 2,24208e-43 0 2,42425e-43 0 
2,22806e-43 0 4,2039e-45 0 2,42425e-43 0 2,41023e-43 0 2,22806e-43 
0 4,2039e-45 0 2,25609e-43 0 2,43826e-43 0 2,24208e-43 0 
4,2039e-45 0 2,43826e-43 0 2,42425e-43 0 2,24208e-43 0 4,2039e-45 
0 2,2701e-43 0 2,45227e-43 0 2,25609e-43 0 4,2039e-45 0 
2,45227e-43 0 2,43826e-43 0 2,25609e-43 0 4,2039e-45 0 2,46629e-43 
0 2,28412e-43 0 2,4803e-43 0 4,2039e-45 0 2,46629e-43 0 
2,45227e-43 0 2,28412e-43 0 4,2039e-45 0 2,45227e-43 0 2,2701e-43 
0 2,28412e-43 0 4,2039e-45 0 2,29813e-43 0 2,4803e-43 0 
2,28412e-43 0 4,2039e-45 0 2,34017e-43 0 2,49431e-43 0 2,35418e-43 
0 4,2039e-45 0 2,49431e-43 0 2,50832e-43 0 2,52234e-43 0 
4,2039e-45 0 2,49431e-43 0 2,34017e-43 0 2,50832e-43 0 4,2039e-45 
0 2,34017e-43 0 2,36819e-43 0 2,50832e-43 0 4,2039e-45 0 
2,38221e-43 0 2,53635e-43 0 2,36819e-43 0 4,2039e-45 0 2,53635e-43 
0 2,50832e-43 0 2,36819e-43 0 4,2039e-45 0 2,39622e-43 0 
2,55036e-43 0 2,38221e-43 0 4,2039e-45 0 2,55036e-43 0 2,53635e-43 
0 2,38221e-43 0 4,2039e-45 0 2,41023e-43 0 2,56438e-43 0 
2,39622e-43 0 4,2039e-45 0 2,56438e-43 0 2,55036e-43 0 2,39622e-43 
0 4,2039e-45 0 2,42425e-43 0 2,57839e-43 0 2,41023e-43 0 
4,2039e-45 0 2,57839e-43 0 2,56438e-43 0 2,41023e-43 0 4,2039e-45 
0 2,43826e-43 0 2,5924e-43 0 2,42425e-43 0 4,2039e-45 0 
2,5924e-43 0 2,57839e-43 0 2,42425e-43 0 4,2039e-45 0 2,60642e-43 
0 2,45227e-43 0 2,62043e-43 0 4,2039e-45 0 2,60642e-43 0 
2,5924e-43 0 2,45227e-43 0 4,2039e-45 0 2,5924e-43 0 2,43826e-43 
0 2,45227e-43 0 4,2039e-45 0 2,46629e-43 0 2,62043e-43 0 
2,45227e-43 0 4,2039e-45 0 2,50832e-43 0 2,63444e-43 0 2,52234e-43 
0 4,2039e-45 0 2,53635e-43 0 2,63444e-43 0 2,50832e-43 0 
4,2039e-45 0 2,64845e-43 0 2,63444e-43 0 2,53635e-43 0 4,2039e-45 
0 2,55036e-43 0 2,64845e-43 0 2,53635e-43 0 4,2039e-45 0 
2,66247e-43 0 2,64845e-43 0 2,55036e-43 0 4,2039e-45 0 2,56438e-43 
0 2,66247e-43 0 2,55036e-43 0 4,2039e-45 0 2,67648e-43 0 
2,66247e-43 0 2,56438e-43 0 4,2039e-45 0 2,57839e-43 0 2,67648e-43 
0 2,56438e-43 0 4,2039e-45 0 2,69049e-43 0 2,67648e-43 0 
2,57839e-43 0 4,2039e-45 0 2,5924e-43 0 2,69049e-43 0 2,57839e-43 
0 4,2039e-45 0 2,70451e-43 0 2,69049e-43 0 2,5924e-43 0 
4,2039e-45 0 2,60642e-43 0 2,70451e-43 0 2,5924e-43 0 4,2039e-45 
0 2,71852e-43 0 2,73253e-43 0 2,74654e-43 0 4,2039e-45 0 
2,71852e-43 0 2,76056e-43 0 2,77457e-43 0 4,2039e-45 0 2,74654e-43 
0 2,76056e-43 0 2,71852e-43 0 4,2039e-45 0 2,76056e-43 0 
2,78858e-43 0 2,77457e-43 0 4,2039e-45 0 2,8026e-43 0 2,81661e-43 
0 2,83062e-43 0 4,2039e-45 0 2,8026e-43 0 2,84464e-43 0 
2,85865e-43 0 4,2039e-45 0 2,83062e-43 0 2,84464e-43 0 2,8026e-43 
0 4,2039e-45 0 2,85865e-43 0 2,87266e-43 0 2,88667e-43 0 
4,2039e-45 0 2,84464e-43 0 2,87266e-43 0 2,85865e-43 0 4,2039e-45 
0 2,88667e-43 0 2,90069e-43 0 2,9147e-43 0 4,2039e-45 0 
2,87266e-43 0 2,90069e-43 0 2,88667e-43 0 4,2039e-45 0 2,73253e-43 
0 2,9147e-43 0 2,90069e-43 0 4,2039e-45 0 2,73253e-43 0 
2,71852e-43 0 2,9147e-43 0 4,2039e-45 0 2,71852e-43 0 2,92871e-43 
0 2,9147e-43 0 4,2039e-45 0 2,77457e-43 0 2,94273e-43 0 
2,71852e-43 0 4,2039e-45 0 2,94273e-43 0 2,92871e-43 0 2,71852e-43 
0 4,2039e-45 0 2,95674e-43 0 2,77457e-43 0 2,78858e-43 0 
4,2039e-45 0 2,95674e-43 0 2,97075e-43 0 2,77457e-43 0 4,2039e-45 
0 2,97075e-43 0 2,94273e-43 0 2,77457e-43 0 4,2039e-45 0 
2,97075e-43 0 2,98477e-43 0 2,99878e-43 0 4,2039e-45 0 2,95674e-43 
0 2,98477e-43 0 2,97075e-43 0 4,2039e-45 0 2,99878e-43 0 
3,01279e-43 0 3,0268e-43 0 4,2039e-45 0 2,98477e-43 0 3,01279e-43 
0 2,99878e-43 0 4,2039e-45 0 3,0268e-43 0 3,04082e-43 0 
3,05483e-43 0 4,2039e-45 0 3,01279e-43 0 3,04082e-43 0 3,0268e-43 